Linux 4.15.0-91-generic (team-24-hw5-i2) 	04/13/20 	_x86_64_	(48 CPU)

# Time        UID       PID    %usr %system  %guest   %wait    %CPU   CPU  minflt/s  majflt/s     VSZ     RSS   %MEM   kB_rd/s   kB_wr/s kB_ccwr/s iodelay  Command
21:42:18     1000      1398    0.97    0.97    0.00    0.00    1.94     6      3.88      0.00   34444    4000   0.00      0.00      0.00      0.00       0  top 
21:42:18     1000      1401  100.00    5.83    0.00    0.00  100.00     1      0.00      0.00 5035184 1399064   0.71      0.00 457817.48      0.00       0  ./gensort -a 160000000 generatedfile 
21:42:18     1000      1457    0.97    2.91    0.00    0.00    3.88    30   2584.47      0.00   22456   15432   0.01      0.00      0.00      0.00       0  pidstat -dru -hl 1 

# Time        UID       PID    %usr %system  %guest   %wait    %CPU   CPU  minflt/s  majflt/s     VSZ     RSS   %MEM   kB_rd/s   kB_wr/s kB_ccwr/s iodelay  Command
21:42:19     1000      1401  100.00    6.00    0.00    0.00  100.00     1      0.00      0.00 5035184 1399064   0.71      0.00 452608.00      0.00       0  ./gensort -a 160000000 generatedfile 
21:42:19     1000      1457    2.00    2.00    0.00    0.00    4.00    30    365.00      0.00   22456   17016   0.01      0.00      0.00      0.00       0  pidstat -dru -hl 1 

# Time        UID       PID    %usr %system  %guest   %wait    %CPU   CPU  minflt/s  majflt/s     VSZ     RSS   %MEM   kB_rd/s   kB_wr/s kB_ccwr/s iodelay  Command
21:42:20     1000      1401  100.00    9.00    0.00    0.00  100.00     3      0.00      0.00 5035184 1399064   0.71      0.00 450560.00      0.00       0  ./gensort -a 160000000 generatedfile 
21:42:20     1000      1457    1.00    2.00    0.00    0.00    3.00    30      0.00      0.00   22456   17016   0.01      0.00      0.00      0.00       0  pidstat -dru -hl 1 

# Time        UID       PID    %usr %system  %guest   %wait    %CPU   CPU  minflt/s  majflt/s     VSZ     RSS   %MEM   kB_rd/s   kB_wr/s kB_ccwr/s iodelay  Command
21:42:21        0       920    0.00    1.00    0.00    0.00    1.00    11      0.00      0.00       0       0   0.00     -1.00     -1.00     -1.00       0  kworker/11:1H
21:42:21     1000      1398    0.00    3.00    0.00    0.00    3.00     6      0.00      0.00   34444    4000   0.00      0.00      0.00      0.00       0  top 
21:42:21     1000      1401  100.00    8.00    0.00    1.00  100.00    17    529.00      0.00 5035184 1400072   0.71      0.00 457216.00      0.00       0  ./gensort -a 160000000 generatedfile 
21:42:21     1000      1457    2.00    1.00    0.00    0.00    3.00    30      0.00      0.00   22456   17016   0.01      0.00      0.00      0.00       0  pidstat -dru -hl 1 

# Time        UID       PID    %usr %system  %guest   %wait    %CPU   CPU  minflt/s  majflt/s     VSZ     RSS   %MEM   kB_rd/s   kB_wr/s kB_ccwr/s iodelay  Command
21:42:22     1000      1401  100.00    8.00    0.00    0.00  100.00    23    143.00      0.00 5035184 1411784   0.72      0.00 454144.00      0.00       0  ./gensort -a 160000000 generatedfile 
21:42:22     1000      1457    3.00    1.00    0.00    0.00    4.00    30      0.00      0.00   22456   17016   0.01      0.00      0.00      0.00       0  pidstat -dru -hl 1 

# Time        UID       PID    %usr %system  %guest   %wait    %CPU   CPU  minflt/s  majflt/s     VSZ     RSS   %MEM   kB_rd/s   kB_wr/s kB_ccwr/s iodelay  Command
21:42:23     1000      1401  100.00    7.00    0.00    0.00  100.00    27     15.00      0.00 5035184 1411784   0.72      0.00 451584.00      0.00       0  ./gensort -a 160000000 generatedfile 
21:42:23     1000      1457    2.00    2.00    0.00    0.00    4.00    30      0.00      0.00   22456   17016   0.01      0.00      0.00      0.00       0  pidstat -dru -hl 1 

# Time        UID       PID    %usr %system  %guest   %wait    %CPU   CPU  minflt/s  majflt/s     VSZ     RSS   %MEM   kB_rd/s   kB_wr/s kB_ccwr/s iodelay  Command
21:42:24        0         1    0.00    0.00    0.00    0.00    0.00    15    235.00      0.00  160056    9276   0.00     -1.00     -1.00     -1.00       0  /sbin/init 
21:42:24        0         9    0.00    1.00    0.00    0.00    1.00    31      0.00      0.00       0       0   0.00     -1.00     -1.00     -1.00       0  rcu_sched
21:42:24        0       790    0.00    0.00    0.00    0.00    0.00    39      0.00      0.00       0       0   0.00     -1.00     -1.00     -1.00       1  jbd2/sda1-8
21:42:24        0       894    0.00    0.00    0.00    0.00    0.00     0     37.00      0.00  249648  127528   0.06     -1.00     -1.00     -1.00       0  /lib/systemd/systemd-journald 
21:42:24        0       926    1.00    1.00    0.00    0.00    2.00    36    878.00      0.00   46148    4760   0.00     -1.00     -1.00     -1.00       0  /lib/systemd/systemd-udevd 
21:42:24     1000      1398    1.00    3.00    0.00    0.00    4.00     6      0.00      0.00   34444    4000   0.00      0.00      0.00      0.00       0  top 
21:42:24     1000      1401  100.00   25.00    0.00    0.00  100.00    27  66514.00      0.00 5035184 1411784   0.72      0.00 443904.00      0.00       0  ./gensort -a 160000000 generatedfile 
21:42:24     1000      1457    1.00    2.00    0.00    0.00    3.00    30      0.00      0.00   22456   17016   0.01      0.00      0.00      0.00       0  pidstat -dru -hl 1 
21:42:24      103      2252    0.00    1.00    0.00    0.00    1.00     7      0.00      0.00   39760    3836   0.00     -1.00     -1.00     -1.00       0  /usr/bin/dbus-daemon --system --address=systemd: --nofork --nopidfile --systemd-activation --syslog-only 

# Time        UID       PID    %usr %system  %guest   %wait    %CPU   CPU  minflt/s  majflt/s     VSZ     RSS   %MEM   kB_rd/s   kB_wr/s kB_ccwr/s iodelay  Command
21:42:25        0       833    0.00    1.00    0.00    0.00    1.00    31      0.00      0.00       0       0   0.00     -1.00     -1.00     -1.00       0  kworker/31:1H
21:42:25     1000      1401  100.00    8.00    0.00    0.00  100.00    27      0.00      0.00 5035184 1411784   0.72      0.00 453632.00      0.00       0  ./gensort -a 160000000 generatedfile 
21:42:25     1000      1457    2.00    1.00    0.00    0.00    3.00    30      0.00      0.00   22456   17016   0.01      0.00      4.00      0.00       0  pidstat -dru -hl 1 

# Time        UID       PID    %usr %system  %guest   %wait    %CPU   CPU  minflt/s  majflt/s     VSZ     RSS   %MEM   kB_rd/s   kB_wr/s kB_ccwr/s iodelay  Command
21:42:26        0       893    0.00    1.00    0.00    0.00    1.00    37      0.00      0.00       0       0   0.00     -1.00     -1.00     -1.00       0  kworker/37:1H
21:42:26     1000      1401  100.00   38.00    0.00    0.00  100.00    27  86148.00      0.00 5035184 1411784   0.72      0.00 444928.00      0.00       0  ./gensort -a 160000000 generatedfile 
21:42:26     1000      1457    1.00    2.00    0.00    0.00    3.00    30      0.00      0.00   22456   17016   0.01      0.00      0.00      0.00       0  pidstat -dru -hl 1 

# Time        UID       PID    %usr %system  %guest   %wait    %CPU   CPU  minflt/s  majflt/s     VSZ     RSS   %MEM   kB_rd/s   kB_wr/s kB_ccwr/s iodelay  Command
21:42:27     1000      1398    1.00    1.00    0.00    0.00    2.00     6      0.00      0.00   34444    4000   0.00      0.00      0.00      0.00       0  top 
21:42:27     1000      1401  100.00   28.00    0.00    0.00  100.00    27  45286.00      0.00 5035184 1411960   0.72      0.00 448000.00      0.00       0  ./gensort -a 160000000 generatedfile 
21:42:27     1000      1457    2.00    2.00    0.00    0.00    4.00    30      0.00      0.00   22456   17016   0.01      0.00      0.00      0.00       0  pidstat -dru -hl 1 

# Time        UID       PID    %usr %system  %guest   %wait    %CPU   CPU  minflt/s  majflt/s     VSZ     RSS   %MEM   kB_rd/s   kB_wr/s kB_ccwr/s iodelay  Command
21:42:28     1000      1401  100.00   49.00    0.00    1.00  100.00    27 112981.00      0.00 5035184 1411960   0.72      0.00 448000.00      0.00       0  ./gensort -a 160000000 generatedfile 
21:42:28     1000      1457    2.00    1.00    0.00    0.00    3.00    30      0.00      0.00   22456   17016   0.01      0.00      0.00      0.00       0  pidstat -dru -hl 1 

# Time        UID       PID    %usr %system  %guest   %wait    %CPU   CPU  minflt/s  majflt/s     VSZ     RSS   %MEM   kB_rd/s   kB_wr/s kB_ccwr/s iodelay  Command
21:42:29        0       824    0.00    1.00    0.00    0.00    1.00    19      0.00      0.00       0       0   0.00     -1.00     -1.00     -1.00       0  kworker/19:1H
21:42:29     1000      1401  100.00   30.00    0.00    0.00  100.00    27  41539.00      0.00 5035184 1411960   0.72      0.00 442880.00      0.00       0  ./gensort -a 160000000 generatedfile 
21:42:29     1000      1457    2.00    2.00    0.00    0.00    4.00    30      0.00      0.00   22456   17016   0.01      0.00      4.00      0.00       0  pidstat -dru -hl 1 

# Time        UID       PID    %usr %system  %guest   %wait    %CPU   CPU  minflt/s  majflt/s     VSZ     RSS   %MEM   kB_rd/s   kB_wr/s kB_ccwr/s iodelay  Command
21:42:30        0         1    0.00    0.00    0.00    0.00    0.00    15      1.00      0.00  160056    9276   0.00     -1.00     -1.00     -1.00       0  /sbin/init 
21:42:30        0         9    0.00    1.00    0.00    0.00    1.00    43      0.00      0.00       0       0   0.00     -1.00     -1.00     -1.00       0  rcu_sched
21:42:30        0      1061    0.00    1.00    0.00    0.00    1.00    41      0.00      0.00       0       0   0.00     -1.00     -1.00     -1.00       0  kworker/41:1H
21:42:30     1000      1398    1.00    2.00    0.00    0.00    3.00     6      1.00      0.00   34444    4000   0.00      0.00      0.00      0.00       0  top 
21:42:30     1000      1401  100.00   30.00    0.00    0.00  100.00    27  86721.00      0.00 5035184 1411960   0.72      0.00 453120.00      0.00       0  ./gensort -a 160000000 generatedfile 
21:42:30     1000      1457    2.00    2.00    0.00    0.00    4.00    30      0.00      0.00   22456   17016   0.01      0.00      0.00      0.00       0  pidstat -dru -hl 1 

# Time        UID       PID    %usr %system  %guest   %wait    %CPU   CPU  minflt/s  majflt/s     VSZ     RSS   %MEM   kB_rd/s   kB_wr/s kB_ccwr/s iodelay  Command
21:42:31     1000      1401  100.00   10.00    0.00    0.00  100.00    27  14969.00      0.00 5035184 1411960   0.72      0.00 457216.00      0.00       0  ./gensort -a 160000000 generatedfile 
21:42:31     1000      1457    1.00    1.00    0.00    0.00    2.00    30      0.00      0.00   22456   17016   0.01      0.00      0.00      0.00       0  pidstat -dru -hl 1 

# Time        UID       PID    %usr %system  %guest   %wait    %CPU   CPU  minflt/s  majflt/s     VSZ     RSS   %MEM   kB_rd/s   kB_wr/s kB_ccwr/s iodelay  Command
21:42:32     1000      1401  100.00   24.00    0.00    0.00  100.00    27  54728.00      0.00 5035184 1411960   0.72      0.00 437760.00      0.00       0  ./gensort -a 160000000 generatedfile 
21:42:32     1000      1457    1.00    3.00    0.00    0.00    4.00    30      0.00      0.00   22456   17016   0.01      0.00      0.00      0.00       0  pidstat -dru -hl 1 

# Time        UID       PID    %usr %system  %guest   %wait    %CPU   CPU  minflt/s  majflt/s     VSZ     RSS   %MEM   kB_rd/s   kB_wr/s kB_ccwr/s iodelay  Command
21:42:33     1000      1398    0.00    2.00    0.00    0.00    2.00     6      0.00      0.00   34444    4000   0.00      0.00      0.00      0.00       0  top 
21:42:33     1000      1401  100.00   17.00    0.00    0.00  100.00    27  41193.00      0.00 5035184 1411960   0.72      0.00 452608.00      0.00       0  ./gensort -a 160000000 generatedfile 
21:42:33     1000      1457    1.00    2.00    0.00    0.00    3.00    30      0.00      0.00   22456   17016   0.01      0.00      0.00      0.00       0  pidstat -dru -hl 1 

# Time        UID       PID    %usr %system  %guest   %wait    %CPU   CPU  minflt/s  majflt/s     VSZ     RSS   %MEM   kB_rd/s   kB_wr/s kB_ccwr/s iodelay  Command
21:42:34        0         1    1.00    0.00    0.00    0.00    1.00    17    238.00      0.00  160056    9276   0.00     -1.00     -1.00     -1.00       0  /sbin/init 
21:42:34        0       894    0.00    1.00    0.00    0.00    1.00     0     34.00      0.00  249648  127608   0.06     -1.00     -1.00     -1.00       0  /lib/systemd/systemd-journald 
21:42:34        0       926    0.00    1.00    0.00    0.00    1.00    36    474.00      0.00   46148    4760   0.00     -1.00     -1.00     -1.00       0  /lib/systemd/systemd-udevd 
21:42:34     1000      1401  100.00   11.00    0.00    0.00  100.00    27  31966.00      0.00 5035184 1411960   0.72      0.00 448000.00      0.00       0  ./gensort -a 160000000 generatedfile 
21:42:34     1000      1457    3.00    1.00    0.00    0.00    4.00    30      0.00      0.00   22456   17016   0.01      0.00      0.00      0.00       0  pidstat -dru -hl 1 

# Time        UID       PID    %usr %system  %guest   %wait    %CPU   CPU  minflt/s  majflt/s     VSZ     RSS   %MEM   kB_rd/s   kB_wr/s kB_ccwr/s iodelay  Command
21:42:35        0       815    0.00    1.00    0.00    0.00    1.00    45      0.00      0.00       0       0   0.00     -1.00     -1.00     -1.00       0  kworker/45:1H
21:42:35        0       926    0.00    1.00    0.00    0.00    1.00    36    327.00      0.00   46148    4760   0.00     -1.00     -1.00     -1.00       0  /lib/systemd/systemd-udevd 
21:42:35     1000      1401  100.00   27.00    0.00    0.00  100.00    27  71804.00      0.00 5035184 1411960   0.72      0.00 445440.00      0.00       0  ./gensort -a 160000000 generatedfile 
21:42:35     1000      1457    1.00    2.00    0.00    0.00    3.00    30      0.00      0.00   22456   17016   0.01      0.00      4.00      0.00       0  pidstat -dru -hl 1 

# Time        UID       PID    %usr %system  %guest   %wait    %CPU   CPU  minflt/s  majflt/s     VSZ     RSS   %MEM   kB_rd/s   kB_wr/s kB_ccwr/s iodelay  Command
21:42:36     1000      1398    1.00    2.00    0.00    0.00    3.00     6      0.00      0.00   34444    4000   0.00      0.00      0.00      0.00       0  top 
21:42:36     1000      1401  100.00   10.00    0.00    1.00  100.00    27     45.00      0.00 5035184 1411960   0.72      0.00 441344.00      0.00       0  ./gensort -a 160000000 generatedfile 
21:42:36     1000      1457    1.00    2.00    0.00    0.00    3.00    30      0.00      0.00   22456   17016   0.01      0.00      0.00      0.00       0  pidstat -dru -hl 1 

# Time        UID       PID    %usr %system  %guest   %wait    %CPU   CPU  minflt/s  majflt/s     VSZ     RSS   %MEM   kB_rd/s   kB_wr/s kB_ccwr/s iodelay  Command
21:42:37        0         9    0.00    1.00    0.00    0.00    1.00     5      0.00      0.00       0       0   0.00     -1.00     -1.00     -1.00       0  rcu_sched
21:42:37        0       864    0.00    1.00    0.00    0.00    1.00     1      0.00      0.00       0       0   0.00     -1.00     -1.00     -1.00       0  kworker/1:1H
21:42:37        0      1272    0.00    1.00    0.00    0.00    1.00     5      0.00      0.00       0       0   0.00     -1.00     -1.00     -1.00       0  kworker/5:1H
21:42:37     1000      1401  100.00   21.00    0.00    0.00  100.00    27  50996.00      0.00 5035184 1411960   0.72      0.00 448000.00      0.00       0  ./gensort -a 160000000 generatedfile 
21:42:37     1000      1457    2.00    2.00    0.00    0.00    4.00    30      0.00      0.00   22456   17016   0.01      0.00      0.00      0.00       0  pidstat -dru -hl 1 
21:42:37        0      2174    1.00    0.00    0.00    0.00    1.00    45      0.00      0.00  110780    3812   0.00     -1.00     -1.00     -1.00       0  /usr/sbin/irqbalance --foreground 

# Time        UID       PID    %usr %system  %guest   %wait    %CPU   CPU  minflt/s  majflt/s     VSZ     RSS   %MEM   kB_rd/s   kB_wr/s kB_ccwr/s iodelay  Command
21:42:38     1000      1401  100.00    7.00    0.00    0.00  100.00    27     89.00      0.00 5035184 1411960   0.72      0.00 450560.00      0.00       0  ./gensort -a 160000000 generatedfile 
21:42:38     1000      1457    1.00    2.00    0.00    0.00    3.00    30      0.00      0.00   22456   17016   0.01      0.00      0.00      0.00       0  pidstat -dru -hl 1 

# Time        UID       PID    %usr %system  %guest   %wait    %CPU   CPU  minflt/s  majflt/s     VSZ     RSS   %MEM   kB_rd/s   kB_wr/s kB_ccwr/s iodelay  Command
21:42:39     1000      1398    1.00    2.00    0.00    0.00    3.00     6      0.00      0.00   34444    4000   0.00      0.00      0.00      0.00       0  top 
21:42:39     1000      1401  100.00    8.00    0.00    0.00  100.00    29     10.00      0.00 5035184 1411960   0.72      0.00 449536.00      0.00       0  ./gensort -a 160000000 generatedfile 
21:42:39     1000      1457    2.00    2.00    0.00    0.00    4.00    30      0.00      0.00   22456   17016   0.01      0.00      0.00      0.00       0  pidstat -dru -hl 1 

# Time        UID       PID    %usr %system  %guest   %wait    %CPU   CPU  minflt/s  majflt/s     VSZ     RSS   %MEM   kB_rd/s   kB_wr/s kB_ccwr/s iodelay  Command
21:42:40     1000      1401  100.00    7.00    0.00    0.00  100.00    29    974.00      0.00 5035184 1411960   0.72      0.00 458240.00      0.00       0  ./gensort -a 160000000 generatedfile 
21:42:40     1000      1457    1.00    2.00    0.00    0.00    3.00    30      0.00      0.00   22456   17016   0.01      0.00      4.00      0.00       0  pidstat -dru -hl 1 
21:42:40        0     31340    0.00    1.00    0.00    0.00    1.00    21      0.00      0.00       0       0   0.00     -1.00     -1.00     -1.00       0  kworker/21:0

# Time        UID       PID    %usr %system  %guest   %wait    %CPU   CPU  minflt/s  majflt/s     VSZ     RSS   %MEM   kB_rd/s   kB_wr/s kB_ccwr/s iodelay  Command
21:42:41     1000      1401  100.00    8.00    0.00    0.00  100.00    29      0.00      0.00 5035184 1411960   0.72      0.00 450560.00      0.00       0  ./gensort -a 160000000 generatedfile 
21:42:41     1000      1457    2.00    2.00    0.00    0.00    4.00    30      0.00      0.00   22456   17016   0.01      0.00      0.00      0.00       0  pidstat -dru -hl 1 

# Time        UID       PID    %usr %system  %guest   %wait    %CPU   CPU  minflt/s  majflt/s     VSZ     RSS   %MEM   kB_rd/s   kB_wr/s kB_ccwr/s iodelay  Command
21:42:42        0       771    0.00    1.00    0.00    0.00    1.00    13      0.00      0.00       0       0   0.00     -1.00     -1.00     -1.00       0  kworker/13:1H
21:42:42     1000      1398    1.00    2.00    0.00    0.00    3.00     6      0.00      0.00   34444    4000   0.00      0.00      0.00      0.00       0  top 
21:42:42     1000      1401  100.00    7.00    0.00    1.00  100.00    29      0.00      0.00 5035184 1411960   0.72      0.00 448512.00      0.00       0  ./gensort -a 160000000 generatedfile 
21:42:42     1000      1457    1.00    0.00    0.00    0.00    1.00    30      0.00      0.00   22456   17016   0.01      0.00      0.00      0.00       0  pidstat -dru -hl 1 

# Time        UID       PID    %usr %system  %guest   %wait    %CPU   CPU  minflt/s  majflt/s     VSZ     RSS   %MEM   kB_rd/s   kB_wr/s kB_ccwr/s iodelay  Command
21:42:43     1000      1401  100.00   24.00    0.00    0.00  100.00    31  65536.00      0.00 5035184 1411960   0.72      0.00 457216.00      0.00       0  ./gensort -a 160000000 generatedfile 
21:42:43     1000      1457    1.00    2.00    0.00    0.00    3.00    30      0.00      0.00   22456   17016   0.01      0.00      0.00      0.00       0  pidstat -dru -hl 1 

# Time        UID       PID    %usr %system  %guest   %wait    %CPU   CPU  minflt/s  majflt/s     VSZ     RSS   %MEM   kB_rd/s   kB_wr/s kB_ccwr/s iodelay  Command
21:42:44        0         9    0.00    1.00    0.00    1.00    1.00     1      0.00      0.00       0       0   0.00     -1.00     -1.00     -1.00       0  rcu_sched
21:42:44     1000      1401  100.00    9.00    0.00    0.00  100.00    35      0.00      0.00 5035184 1411960   0.72      0.00 449536.00      0.00       0  ./gensort -a 160000000 generatedfile 
21:42:44     1000      1457    1.00    3.00    0.00    0.00    4.00    30      0.00      0.00   22456   17016   0.01      0.00      0.00      0.00       0  pidstat -dru -hl 1 

# Time        UID       PID    %usr %system  %guest   %wait    %CPU   CPU  minflt/s  majflt/s     VSZ     RSS   %MEM   kB_rd/s   kB_wr/s kB_ccwr/s iodelay  Command
21:42:45        0         1    0.00    1.00    0.00    0.00    1.00    19    240.00      0.00  160056    9276   0.00     -1.00     -1.00     -1.00       0  /sbin/init 
21:42:45        0       894    1.00    0.00    0.00    0.00    1.00     0     40.00      0.00  249648  127632   0.06     -1.00     -1.00     -1.00       0  /lib/systemd/systemd-journald 
21:42:45        0       926    1.00    0.00    0.00    0.00    1.00    36    813.00      0.00   46148    4760   0.00     -1.00     -1.00     -1.00       0  /lib/systemd/systemd-udevd 
21:42:45     1000      1401  100.00   16.00    0.00    0.00  100.00    41  46541.00      0.00 5035184 1411960   0.72      0.00 454656.00      0.00       0  ./gensort -a 160000000 generatedfile 
21:42:45     1000      1457    1.00    2.00    0.00    0.00    3.00    30      0.00      0.00   22456   17016   0.01      0.00      0.00      0.00       0  pidstat -dru -hl 1 
21:42:45        0      2473    0.00    1.00    0.00    0.00    1.00    47      0.00      0.00       0       0   0.00     -1.00     -1.00     -1.00       0  kworker/47:1H

# Time        UID       PID    %usr %system  %guest   %wait    %CPU   CPU  minflt/s  majflt/s     VSZ     RSS   %MEM   kB_rd/s   kB_wr/s kB_ccwr/s iodelay  Command
21:42:46     1000      1401  100.00   10.00    0.00    0.00  100.00    41  18995.00      0.00 5035184 1411960   0.72      0.00 452608.00      0.00       0  ./gensort -a 160000000 generatedfile 
21:42:46     1000      1457    1.00    3.00    0.00    0.00    4.00    30      1.00      0.00   22456   17016   0.01      0.00      4.00      0.00       0  pidstat -dru -hl 1 

# Time        UID       PID    %usr %system  %guest   %wait    %CPU   CPU  minflt/s  majflt/s     VSZ     RSS   %MEM   kB_rd/s   kB_wr/s kB_ccwr/s iodelay  Command
21:42:47        0       854    0.00    1.00    0.00    0.00    1.00    15      0.00      0.00       0       0   0.00     -1.00     -1.00     -1.00       0  kworker/15:1H
21:42:47     1000      1401   25.00    8.00    0.00    0.00   33.00    19     38.00      0.00 4674560 1411664   0.72      0.00 450560.00      0.00       0  ./gensort -a 160000000 generatedfile 
21:42:47     1000      1457    1.00    3.00    0.00    0.00    4.00    30      1.00      0.00   22456   17016   0.01      0.00      0.00      0.00       0  pidstat -dru -hl 1 

# Time        UID       PID    %usr %system  %guest   %wait    %CPU   CPU  minflt/s  majflt/s     VSZ     RSS   %MEM   kB_rd/s   kB_wr/s kB_ccwr/s iodelay  Command
21:42:48     1000      1401   16.00   26.00    0.00    0.00   42.00    19  65536.00      0.00 4674560 1411664   0.72      0.00 453120.00      0.00       0  ./gensort -a 160000000 generatedfile 
21:42:48     1000      1457    2.00    1.00    0.00    0.00    3.00    30      0.00      0.00   22456   17016   0.01      0.00      0.00      0.00       0  pidstat -dru -hl 1 

# Time        UID       PID    %usr %system  %guest   %wait    %CPU   CPU  minflt/s  majflt/s     VSZ     RSS   %MEM   kB_rd/s   kB_wr/s kB_ccwr/s iodelay  Command
21:42:49     1000      1401   12.00    8.00    0.00    0.00   20.00    19      0.00      0.00 4674560 1411664   0.72      0.00 450048.00      0.00       0  ./gensort -a 160000000 generatedfile 
21:42:49     1000      1457    1.00    2.00    0.00    0.00    3.00    30      0.00      0.00   22456   17016   0.01      0.00      0.00      0.00       0  pidstat -dru -hl 1 

# Time        UID       PID    %usr %system  %guest   %wait    %CPU   CPU  minflt/s  majflt/s     VSZ     RSS   %MEM   kB_rd/s   kB_wr/s kB_ccwr/s iodelay  Command
21:42:50     1000      1400    0.00    0.00    0.00    0.00    0.00    41      8.00      0.00    4628     780   0.00      0.00 15625000.00      0.00       0  sh runlinux1g.sh 
21:42:50     1000      1457    1.00    3.00    0.00    0.00    4.00    30      0.00      0.00   22456   17016   0.01      0.00      0.00      0.00       0  pidstat -dru -hl 1 
21:42:50     1000      1504    5.00   38.00    0.00    0.00   43.00     2  70548.00      0.00 8395404  283704   0.14 227584.00      0.00      0.00      27  sort -S 8G --parallel=4 -o outfile generatedfile 

# Time        UID       PID    %usr %system  %guest   %wait    %CPU   CPU  minflt/s  majflt/s     VSZ     RSS   %MEM   kB_rd/s   kB_wr/s kB_ccwr/s iodelay  Command
21:42:51     1000      1457    1.00    2.00    0.00    0.00    3.00    30      0.00      0.00   22456   17016   0.01      0.00      4.00      0.00       0  pidstat -dru -hl 1 
21:42:51     1000      1504   11.00   50.00    0.00    0.00   61.00     2 101740.00      0.00 8395404  690528   0.35 303872.00      0.00      0.00      38  sort -S 8G --parallel=4 -o outfile generatedfile 

# Time        UID       PID    %usr %system  %guest   %wait    %CPU   CPU  minflt/s  majflt/s     VSZ     RSS   %MEM   kB_rd/s   kB_wr/s kB_ccwr/s iodelay  Command
21:42:52     1000      1457    2.00    2.00    0.00    0.00    4.00    30      0.00      0.00   22456   17016   0.01      0.00      0.00      0.00       0  pidstat -dru -hl 1 
21:42:52     1000      1504   11.00   49.00    0.00    0.00   60.00     2  99143.00      0.00 8395404 1087056   0.55 301568.00      0.00      0.00      40  sort -S 8G --parallel=4 -o outfile generatedfile 

# Time        UID       PID    %usr %system  %guest   %wait    %CPU   CPU  minflt/s  majflt/s     VSZ     RSS   %MEM   kB_rd/s   kB_wr/s kB_ccwr/s iodelay  Command
21:42:53     1000      1457    2.00    2.00    0.00    0.00    4.00    30      0.00      0.00   22456   17016   0.01      0.00      4.00      0.00       0  pidstat -dru -hl 1 
21:42:53     1000      1504    9.00   53.00    0.00    0.00   62.00     2  99749.00      0.00 8395404 1486224   0.76 296192.00      0.00      0.00      38  sort -S 8G --parallel=4 -o outfile generatedfile 

# Time        UID       PID    %usr %system  %guest   %wait    %CPU   CPU  minflt/s  majflt/s     VSZ     RSS   %MEM   kB_rd/s   kB_wr/s kB_ccwr/s iodelay  Command
21:42:54        0       208    1.00    0.00    0.00    0.00    1.00    33      0.00      0.00       0       0   0.00     -1.00     -1.00     -1.00       0  watchdog/33
21:42:54     1000      1457    1.00    2.00    0.00    0.00    3.00    30      0.00      0.00   22456   17016   0.01      0.00      0.00      0.00       0  pidstat -dru -hl 1 
21:42:54     1000      1504    7.00   52.00    0.00    0.00   59.00     2  96983.00      0.00 8395404 1874040   0.95 303104.00      0.00      0.00      41  sort -S 8G --parallel=4 -o outfile generatedfile 
21:42:54        0     46185    0.00    1.00    0.00    0.00    1.00     0      0.00      0.00       0       0   0.00     -1.00     -1.00     -1.00       0  kworker/u97:1

# Time        UID       PID    %usr %system  %guest   %wait    %CPU   CPU  minflt/s  majflt/s     VSZ     RSS   %MEM   kB_rd/s   kB_wr/s kB_ccwr/s iodelay  Command
21:42:55        0         1    1.00    0.00    0.00    0.00    1.00    25    231.00      0.00  160056    9276   0.00     -1.00     -1.00     -1.00       0  /sbin/init 
21:42:55        0         9    0.00    1.00    0.00    0.00    1.00    22      0.00      0.00       0       0   0.00     -1.00     -1.00     -1.00       0  rcu_sched
21:42:55        0       894    0.00    0.00    0.00    0.00    0.00    21    128.00      0.00  249648  127820   0.07     -1.00     -1.00     -1.00       0  /lib/systemd/systemd-journald 
21:42:55        0       926    0.00    1.00    0.00    0.00    1.00    36    758.00      0.00   46148    4760   0.00     -1.00     -1.00     -1.00       0  /lib/systemd/systemd-udevd 
21:42:55     1000      1457    2.00    2.00    0.00    0.00    4.00    30      0.00      0.00   22456   17016   0.01      0.00      0.00      0.00       0  pidstat -dru -hl 1 
21:42:55     1000      1504   10.00   50.00    0.00    0.00   60.00     2  99494.00      0.00 8395404 2271888   1.16 291072.00      0.00      0.00      39  sort -S 8G --parallel=4 -o outfile generatedfile 

# Time        UID       PID    %usr %system  %guest   %wait    %CPU   CPU  minflt/s  majflt/s     VSZ     RSS   %MEM   kB_rd/s   kB_wr/s kB_ccwr/s iodelay  Command
21:42:56     1000      1457    2.00    1.00    0.00    0.00    3.00    30      0.00      0.00   22456   17016   0.01      0.00      0.00      0.00       0  pidstat -dru -hl 1 
21:42:56     1000      1504    9.00   53.00    0.00    0.00   62.00     2  98382.00      0.00 8395404 2665512   1.36 298752.00      0.00      0.00      38  sort -S 8G --parallel=4 -o outfile generatedfile 

# Time        UID       PID    %usr %system  %guest   %wait    %CPU   CPU  minflt/s  majflt/s     VSZ     RSS   %MEM   kB_rd/s   kB_wr/s kB_ccwr/s iodelay  Command
21:42:57     1000      1457    1.00    3.00    0.00    0.00    4.00    30      0.00      0.00   22456   17016   0.01      0.00      4.00      0.00       0  pidstat -dru -hl 1 
21:42:57     1000      1504    8.00   53.00    0.00    0.00   61.00     2  98708.00      0.00 8395404 3060456   1.56 297984.00      0.00      0.00      39  sort -S 8G --parallel=4 -o outfile generatedfile 
21:42:57        0      2174    0.00    1.00    0.00    0.00    1.00    45      0.00      0.00  110780    3812   0.00     -1.00     -1.00     -1.00       0  /usr/sbin/irqbalance --foreground 

# Time        UID       PID    %usr %system  %guest   %wait    %CPU   CPU  minflt/s  majflt/s     VSZ     RSS   %MEM   kB_rd/s   kB_wr/s kB_ccwr/s iodelay  Command