Linux 4.15.0-91-generic (team-24-hw5-i2) 	04/13/20 	_x86_64_	(48 CPU)

# Time        UID       PID    %usr %system  %guest   %wait    %CPU   CPU  minflt/s  majflt/s     VSZ     RSS   %MEM   kB_rd/s   kB_wr/s kB_ccwr/s iodelay  Command
22:52:17        0         1    0.96    0.96    0.00    0.00    1.92    11    218.27      0.00  160056    9276   0.00     -1.00     -1.00     -1.00       0  /sbin/init 
22:52:17        0       894    0.00    0.00    0.00    0.00    0.00     9     35.58      0.00  266004  138264   0.07     -1.00     -1.00     -1.00       0  /lib/systemd/systemd-journald 
22:52:17        0       926    0.00    0.96    0.00    0.00    0.96    32    796.15      0.00   46148    4556   0.00     -1.00     -1.00     -1.00       0  /lib/systemd/systemd-udevd 
22:52:17     1000      2262    1.92    1.92    0.00    0.00    3.85    45      0.00      0.00   22504   17260   0.01      0.00      0.00      0.00       0  pidstat -dru -hl 1 
22:52:17     1000      8537  100.00    5.77    0.00    0.00  100.00     5      0.00      0.00 5035184 1398900   0.71      0.00 447507.69      0.00       0  ./gensort -a 640000000 generatedfile 
22:52:17     1000      8590    1.92    1.92    0.00    0.00    3.85     1   2530.77      0.00   22276   15932   0.01      0.00      0.00      0.00       0  pidstat -dru -hl 1 

# Time        UID       PID    %usr %system  %guest   %wait    %CPU   CPU  minflt/s  majflt/s     VSZ     RSS   %MEM   kB_rd/s   kB_wr/s kB_ccwr/s iodelay  Command
22:52:18     1000      2262    2.00    1.00    0.00    0.00    3.00    45      0.00      0.00   22504   17260   0.01      0.00      8.00      0.00       0  pidstat -dru -hl 1 
22:52:18     1000      8534    1.00    2.00    0.00    0.00    3.00     2      4.00      0.00   34444    4044   0.00      0.00      0.00      0.00       0  top 
22:52:18     1000      8537  100.00    8.00    0.00    0.00  100.00     5      0.00      0.00 5035184 1398900   0.71      0.00 454144.00      0.00       0  ./gensort -a 640000000 generatedfile 
22:52:18     1000      8590    2.00    2.00    0.00    0.00    4.00     0    188.00      0.00   22276   16724   0.01      0.00      0.00      0.00       0  pidstat -dru -hl 1 

# Time        UID       PID    %usr %system  %guest   %wait    %CPU   CPU  minflt/s  majflt/s     VSZ     RSS   %MEM   kB_rd/s   kB_wr/s kB_ccwr/s iodelay  Command
22:52:19        0       830    0.00    1.00    0.00    0.00    1.00    14      0.00      0.00       0       0   0.00     -1.00     -1.00     -1.00       0  kworker/14:1H
22:52:19     1000      2262    2.00    1.00    0.00    0.00    3.00    45      0.00      0.00   22504   17260   0.01      0.00      0.00      0.00       0  pidstat -dru -hl 1 
22:52:19     1000      8537  100.00    9.00    0.00    0.00  100.00     5      0.00      0.00 5035184 1398900   0.71      0.00 441856.00      0.00       0  ./gensort -a 640000000 generatedfile 
22:52:19     1000      8590    1.00    2.00    0.00    0.00    3.00     1      0.00      0.00   22276   16724   0.01      0.00      0.00      0.00       0  pidstat -dru -hl 1 

# Time        UID       PID    %usr %system  %guest   %wait    %CPU   CPU  minflt/s  majflt/s     VSZ     RSS   %MEM   kB_rd/s   kB_wr/s kB_ccwr/s iodelay  Command
22:52:20        0       896    0.00    1.00    0.00    0.00    1.00    20      0.00      0.00       0       0   0.00     -1.00     -1.00     -1.00       0  kworker/20:1H
22:52:20     1000      2262    0.00    3.00    0.00    0.00    3.00    45      0.00      0.00   22504   17260   0.01      0.00      0.00      0.00       0  pidstat -dru -hl 1 
22:52:20     1000      8537  100.00    8.00    0.00    0.00  100.00     5      0.00      0.00 5035184 1398900   0.71      0.00 448512.00      0.00       0  ./gensort -a 640000000 generatedfile 
22:52:20     1000      8590    2.00    0.00    0.00    0.00    2.00     1      0.00      0.00   22276   16724   0.01      0.00      0.00      0.00       0  pidstat -dru -hl 1 

# Time        UID       PID    %usr %system  %guest   %wait    %CPU   CPU  minflt/s  majflt/s     VSZ     RSS   %MEM   kB_rd/s   kB_wr/s kB_ccwr/s iodelay  Command
22:52:21        0         9    0.00    1.00    0.00    0.00    1.00    22      0.00      0.00       0       0   0.00     -1.00     -1.00     -1.00       0  rcu_sched
22:52:21     1000      2262    1.00    2.00    0.00    0.00    3.00    45      0.00      0.00   22504   17260   0.01      0.00      0.00      0.00       0  pidstat -dru -hl 1 
22:52:21     1000      8534    1.00    2.00    0.00    0.00    3.00     2      0.00      0.00   34444    4044   0.00      0.00      0.00      0.00       0  top 
22:52:21     1000      8537  100.00    8.00    0.00    0.00  100.00     5      0.00      0.00 5035184 1398900   0.71      0.00 449024.00      0.00       0  ./gensort -a 640000000 generatedfile 
22:52:21     1000      8590    1.00    2.00    0.00    0.00    3.00     1      0.00      0.00   22276   16724   0.01      0.00      0.00      0.00       0  pidstat -dru -hl 1 

# Time        UID       PID    %usr %system  %guest   %wait    %CPU   CPU  minflt/s  majflt/s     VSZ     RSS   %MEM   kB_rd/s   kB_wr/s kB_ccwr/s iodelay  Command
22:52:22        0        17    1.00    0.00    0.00    0.00    1.00     1      0.00      0.00       0       0   0.00     -1.00     -1.00     -1.00       0  ksoftirqd/1
22:52:22     1000      2262    2.00    2.00    0.00    0.00    4.00    45      0.00      0.00   22504   17260   0.01      0.00      4.00      0.00       0  pidstat -dru -hl 1 
22:52:22     1000      8537  100.00    8.00    0.00    0.00  100.00     5    586.00      0.00 5035184 1404344   0.71      4.00 452096.00      0.00       0  ./gensort -a 640000000 generatedfile 
22:52:22     1000      8590    1.00    2.00    0.00    0.00    3.00     1      0.00      0.00   22276   16724   0.01      0.00      4.00      0.00       0  pidstat -dru -hl 1 

# Time        UID       PID    %usr %system  %guest   %wait    %CPU   CPU  minflt/s  majflt/s     VSZ     RSS   %MEM   kB_rd/s   kB_wr/s kB_ccwr/s iodelay  Command
22:52:23     1000      2262    0.00    2.00    0.00    0.00    2.00    45      0.00      0.00   22504   17260   0.01      0.00      0.00      0.00       0  pidstat -dru -hl 1 
22:52:23     1000      8537  100.00    9.00    0.00    0.00  100.00     5     76.00      0.00 5035184 1409804   0.72      0.00 454144.00      0.00       0  ./gensort -a 640000000 generatedfile 
22:52:23     1000      8590    1.00    2.00    0.00    0.00    3.00     1      0.00      0.00   22276   16724   0.01      0.00      0.00      0.00       0  pidstat -dru -hl 1 

# Time        UID       PID    %usr %system  %guest   %wait    %CPU   CPU  minflt/s  majflt/s     VSZ     RSS   %MEM   kB_rd/s   kB_wr/s kB_ccwr/s iodelay  Command
22:52:24     1000      2262    2.00    2.00    0.00    0.00    4.00    45      0.00      0.00   22504   17260   0.01      0.00      0.00      0.00       0  pidstat -dru -hl 1 
22:52:24     1000      8534    1.00    2.00    0.00    0.00    3.00     2      0.00      0.00   34444    4044   0.00      0.00      0.00      0.00       0  top 
22:52:24     1000      8537  100.00   23.00    0.00    0.00  100.00     5  28957.00      0.00 5035184 1411624   0.72      0.00 443392.00      0.00       0  ./gensort -a 640000000 generatedfile 
22:52:24     1000      8590    1.00    3.00    0.00    0.00    4.00     1      0.00      0.00   22276   16724   0.01      0.00      0.00      0.00       0  pidstat -dru -hl 1 

# Time        UID       PID    %usr %system  %guest   %wait    %CPU   CPU  minflt/s  majflt/s     VSZ     RSS   %MEM   kB_rd/s   kB_wr/s kB_ccwr/s iodelay  Command
22:52:25        0      1009    0.00    1.00    0.00    0.00    1.00    38      0.00      0.00       0       0   0.00     -1.00     -1.00     -1.00       0  kworker/38:1H
22:52:25     1000      2262    0.00    2.00    0.00    0.00    2.00    45      0.00      0.00   22504   17260   0.01      0.00      0.00      0.00       0  pidstat -dru -hl 1 
22:52:25     1000      8537  100.00    7.00    0.00    0.00  100.00     5      2.00      0.00 5035184 1411624   0.72      0.00 455168.00      0.00       0  ./gensort -a 640000000 generatedfile 
22:52:25     1000      8590    0.00    2.00    0.00    0.00    2.00     1      0.00      0.00   22276   16724   0.01      0.00      0.00      0.00       0  pidstat -dru -hl 1 

# Time        UID       PID    %usr %system  %guest   %wait    %CPU   CPU  minflt/s  majflt/s     VSZ     RSS   %MEM   kB_rd/s   kB_wr/s kB_ccwr/s iodelay  Command
22:52:26     1000      2262    1.00    2.00    0.00    0.00    3.00    45      0.00      0.00   22504   17260   0.01      0.00      0.00      0.00       0  pidstat -dru -hl 1 
22:52:26     1000      8537  100.00   62.00    0.00    0.00  100.00     5 101193.00      0.00 5035184 1411624   0.72      0.00 427008.00      0.00       0  ./gensort -a 640000000 generatedfile 
22:52:26     1000      8590    2.00    1.00    0.00    0.00    3.00     1      0.00      0.00   22276   16724   0.01      0.00      4.00      0.00       0  pidstat -dru -hl 1 

# Time        UID       PID    %usr %system  %guest   %wait    %CPU   CPU  minflt/s  majflt/s     VSZ     RSS   %MEM   kB_rd/s   kB_wr/s kB_ccwr/s iodelay  Command
22:52:27        0         1    0.00    0.00    0.00    0.00    0.00    17    233.00      0.00  160056    9276   0.00     -1.00     -1.00     -1.00       0  /sbin/init 
22:52:27        0        24    0.00    1.00    0.00    0.00    1.00     2      0.00      0.00       0       0   0.00     -1.00     -1.00     -1.00       0  ksoftirqd/2
22:52:27        0       894    0.00    0.00    0.00    0.00    0.00     9     35.00      0.00  266004  138348   0.07     -1.00     -1.00     -1.00       0  /lib/systemd/systemd-journald 
22:52:27        0       926    0.00    1.00    0.00    0.00    1.00    32    760.00      0.00   46148    4556   0.00     -1.00     -1.00     -1.00       0  /lib/systemd/systemd-udevd 
22:52:27     1000      2262    1.00    2.00    0.00    0.00    3.00    45      0.00      0.00   22504   17260   0.01      0.00      4.00      0.00       0  pidstat -dru -hl 1 
22:52:27     1000      8534    1.00    2.00    0.00    0.00    3.00     2      1.00      0.00   34444    4044   0.00      0.00      0.00      0.00       0  top 
22:52:27     1000      8537  100.00   47.00    0.00    0.00  100.00     5  78403.00      0.00 5035184 1411792   0.72      0.00 429056.00      0.00       0  ./gensort -a 640000000 generatedfile 
22:52:27     1000      8590    2.00    2.00    0.00    0.00    4.00     1      0.00      0.00   22276   16724   0.01      0.00      0.00      0.00       0  pidstat -dru -hl 1 
22:52:27        0     46840    1.00    0.00    0.00    1.00    1.00    39      0.00      0.00       0       0   0.00     -1.00     -1.00     -1.00       0  kworker/39:0

# Time        UID       PID    %usr %system  %guest   %wait    %CPU   CPU  minflt/s  majflt/s     VSZ     RSS   %MEM   kB_rd/s   kB_wr/s kB_ccwr/s iodelay  Command
22:52:28        0         9    0.00    1.00    0.00    0.00    1.00    32      0.00      0.00       0       0   0.00     -1.00     -1.00     -1.00       0  rcu_sched
22:52:28        0      2174    0.00    1.00    0.00    0.00    1.00    34      0.00      0.00  110780    3812   0.00     -1.00     -1.00     -1.00       0  /usr/sbin/irqbalance --foreground 
22:52:28     1000      2262    0.00    2.00    0.00    0.00    2.00    45      0.00      0.00   22504   17260   0.01      0.00      0.00      0.00       0  pidstat -dru -hl 1 
22:52:28     1000      8537  100.00   73.00    0.00    0.00  100.00     5 103121.00      0.00 5035184 1411792   0.72      0.00 412672.00      0.00       0  ./gensort -a 640000000 generatedfile 
22:52:28     1000      8590    0.00    3.00    0.00    0.00    3.00     1      0.00      0.00   22276   16724   0.01      0.00      0.00      0.00       0  pidstat -dru -hl 1 

# Time        UID       PID    %usr %system  %guest   %wait    %CPU   CPU  minflt/s  majflt/s     VSZ     RSS   %MEM   kB_rd/s   kB_wr/s kB_ccwr/s iodelay  Command
22:52:29     1000      2262    1.00    2.00    0.00    0.00    3.00    45      0.00      0.00   22504   17260   0.01      0.00      0.00      0.00       0  pidstat -dru -hl 1 
22:52:29     1000      8537  100.00   20.00    0.00    0.00  100.00     5  40731.00      0.00 5035184 1411792   0.72      0.00 442368.00      0.00       0  ./gensort -a 640000000 generatedfile 
22:52:29     1000      8590    1.00    2.00    0.00    0.00    3.00     1      0.00      0.00   22276   16724   0.01      0.00      0.00      0.00       0  pidstat -dru -hl 1 

# Time        UID       PID    %usr %system  %guest   %wait    %CPU   CPU  minflt/s  majflt/s     VSZ     RSS   %MEM   kB_rd/s   kB_wr/s kB_ccwr/s iodelay  Command
22:52:30        0         1    0.00    0.00    0.00    0.00    0.00    17      1.00      0.00  160056    9276   0.00     -1.00     -1.00     -1.00       0  /sbin/init 
22:52:30        0        82    1.00    0.00    0.00    0.00    1.00    12      0.00      0.00       0       0   0.00     -1.00     -1.00     -1.00       0  watchdog/12
22:52:30     1000      2262    1.00    2.00    0.00    0.00    3.00    45      0.00      0.00   22504   17260   0.01      0.00      4.00      0.00       0  pidstat -dru -hl 1 
22:52:30     1000      8534    0.00    2.00    0.00    0.00    2.00     2      0.00      0.00   34444    4044   0.00      0.00      0.00      0.00       0  top 
22:52:30     1000      8537  100.00    9.00    0.00    0.00  100.00     5     68.00      0.00 5035184 1411792   0.72      0.00 458240.00      0.00       0  ./gensort -a 640000000 generatedfile 
22:52:30     1000      8590    0.00    2.00    0.00    0.00    2.00     1      0.00      0.00   22276   16724   0.01      0.00      4.00      0.00       0  pidstat -dru -hl 1 
22:52:30        0     31340    0.00    1.00    0.00    0.00    1.00    21      0.00      0.00       0       0   0.00     -1.00     -1.00     -1.00       0  kworker/21:0
22:52:30        0     34989    0.00    1.00    0.00    0.00    1.00     1      0.00      0.00       0       0   0.00     -1.00     -1.00     -1.00       0  kworker/1:1

# Time        UID       PID    %usr %system  %guest   %wait    %CPU   CPU  minflt/s  majflt/s     VSZ     RSS   %MEM   kB_rd/s   kB_wr/s kB_ccwr/s iodelay  Command
22:52:31        0       877    0.00    1.00    0.00    0.00    1.00     2      0.00      0.00       0       0   0.00     -1.00     -1.00     -1.00       0  kworker/2:1H
22:52:31     1000      2262    1.00    1.00    0.00    0.00    2.00    45      0.00      0.00   22504   17260   0.01      0.00      0.00      0.00       0  pidstat -dru -hl 1 
22:52:31     1000      8537  100.00    7.00    0.00    0.00  100.00     5     18.00      0.00 5035184 1411792   0.72      0.00 449024.00      0.00       0  ./gensort -a 640000000 generatedfile 
22:52:31     1000      8590    1.00    4.00    0.00    0.00    5.00     3      0.00      0.00   22276   16724   0.01      0.00      0.00      0.00       0  pidstat -dru -hl 1 

# Time        UID       PID    %usr %system  %guest   %wait    %CPU   CPU  minflt/s  majflt/s     VSZ     RSS   %MEM   kB_rd/s   kB_wr/s kB_ccwr/s iodelay  Command
22:52:32        0      1617    0.00    1.00    0.00    0.00    1.00     8      0.00      0.00       0       0   0.00     -1.00     -1.00     -1.00       0  kworker/8:1H
22:52:32     1000      2262    2.00    2.00    0.00    0.00    4.00    45      0.00      0.00   22504   17260   0.01      0.00      0.00      0.00       0  pidstat -dru -hl 1 
22:52:32     1000      8537  100.00    4.00    0.00    0.00  100.00     5     28.00      0.00 5035184 1411792   0.72      0.00 449024.00      0.00       0  ./gensort -a 640000000 generatedfile 
22:52:32     1000      8590    1.00    2.00    0.00    0.00    3.00     0      0.00      0.00   22276   16724   0.01      0.00      0.00      0.00       0  pidstat -dru -hl 1 

# Time        UID       PID    %usr %system  %guest   %wait    %CPU   CPU  minflt/s  majflt/s     VSZ     RSS   %MEM   kB_rd/s   kB_wr/s kB_ccwr/s iodelay  Command
22:52:33     1000      2262    1.00    2.00    0.00    0.00    3.00    45      0.00      0.00   22504   17260   0.01      0.00      0.00      0.00       0  pidstat -dru -hl 1 
22:52:33     1000      8534    1.00    3.00    0.00    0.00    4.00     2      0.00      0.00   34444    4044   0.00      0.00      0.00      0.00       0  top 
22:52:33     1000      8537  100.00   16.00    0.00    0.00  100.00     5  28929.00      0.00 5035184 1411792   0.72      0.00 448000.00      0.00       0  ./gensort -a 640000000 generatedfile 
22:52:33     1000      8590    2.00    1.00    0.00    0.00    3.00     3      0.00      0.00   22276   16724   0.01      0.00      0.00      0.00       0  pidstat -dru -hl 1 

# Time        UID       PID    %usr %system  %guest   %wait    %CPU   CPU  minflt/s  majflt/s     VSZ     RSS   %MEM   kB_rd/s   kB_wr/s kB_ccwr/s iodelay  Command
22:52:34     1000      2262    2.00    1.00    0.00    0.00    3.00    45      0.00      0.00   22504   17260   0.01      0.00      0.00      0.00       0  pidstat -dru -hl 1 
22:52:34     1000      8537  100.00    8.00    0.00    0.00  100.00     5      0.00      0.00 5035184 1411792   0.72      0.00 449536.00      0.00       0  ./gensort -a 640000000 generatedfile 
22:52:34     1000      8590    0.00    2.00    0.00    0.00    2.00     3      0.00      0.00   22276   16724   0.01      0.00      4.00      0.00       0  pidstat -dru -hl 1 

# Time        UID       PID    %usr %system  %guest   %wait    %CPU   CPU  minflt/s  majflt/s     VSZ     RSS   %MEM   kB_rd/s   kB_wr/s kB_ccwr/s iodelay  Command
22:52:35        0         9    0.00    1.00    0.00    0.00    1.00    20      0.00      0.00       0       0   0.00     -1.00     -1.00     -1.00       0  rcu_sched
22:52:35        0       624    0.00    1.00    0.00    0.00    1.00    16      0.00      0.00       0       0   0.00     -1.00     -1.00     -1.00       0  kworker/16:1H
22:52:35     1000      2262    0.00    3.00    0.00    0.00    3.00    45      0.00      0.00   22504   17260   0.01      0.00      4.00      0.00       0  pidstat -dru -hl 1 
22:52:35     1000      8537  100.00    7.00    0.00    0.00  100.00     5      0.00      0.00 5035184 1411792   0.72      0.00 454656.00      0.00       0  ./gensort -a 640000000 generatedfile 
22:52:35     1000      8590    2.00    2.00    0.00    0.00    4.00     3      0.00      0.00   22276   16724   0.01      0.00      0.00      0.00       0  pidstat -dru -hl 1 

# Time        UID       PID    %usr %system  %guest   %wait    %CPU   CPU  minflt/s  majflt/s     VSZ     RSS   %MEM   kB_rd/s   kB_wr/s kB_ccwr/s iodelay  Command
22:52:36        0       790    0.00    0.00    0.00    0.00    0.00    12      0.00      0.00       0       0   0.00     -1.00     -1.00     -1.00       1  jbd2/sda1-8
22:52:36     1000      2262    2.00    1.00    0.00    0.00    3.00    45      0.00      0.00   22504   17260   0.01      0.00      0.00      0.00       0  pidstat -dru -hl 1 
22:52:36     1000      8534    0.00    3.00    0.00    0.00    3.00     2      0.00      0.00   34444    4044   0.00      0.00      0.00      0.00       0  top 
22:52:36     1000      8537  100.00   24.00    0.00    0.00  100.00     5  65536.00      0.00 5035184 1411792   0.72      0.00 441344.00      0.00       0  ./gensort -a 640000000 generatedfile 
22:52:36     1000      8590    2.00    1.00    0.00    0.00    3.00     3      0.00      0.00   22276   16724   0.01      0.00      0.00      0.00       0  pidstat -dru -hl 1 

# Time        UID       PID    %usr %system  %guest   %wait    %CPU   CPU  minflt/s  majflt/s     VSZ     RSS   %MEM   kB_rd/s   kB_wr/s kB_ccwr/s iodelay  Command
22:52:37        0         1    0.00    0.00    0.00    0.00    0.00    19    224.00      0.00  160056    9276   0.00     -1.00     -1.00     -1.00       0  /sbin/init 
22:52:37        0       894    1.00    0.00    0.00    0.00    1.00     0     44.00      0.00  266004  138500   0.07     -1.00     -1.00     -1.00       0  /lib/systemd/systemd-journald 
22:52:37        0       926    0.00    1.00    0.00    0.00    1.00    32    756.00      0.00   46148    4556   0.00     -1.00     -1.00     -1.00       0  /lib/systemd/systemd-udevd 
22:52:37     1000      2262    1.00    2.00    0.00    0.00    3.00    45      0.00      0.00   22504   17260   0.01      0.00      0.00      0.00       0  pidstat -dru -hl 1 
22:52:37     1000      8537  100.00    8.00    0.00    0.00  100.00     5      0.00      0.00 5035184 1411792   0.72      0.00 453120.00      0.00       0  ./gensort -a 640000000 generatedfile 
22:52:37     1000      8590    1.00    0.00    0.00    0.00    1.00     3      0.00      0.00   22276   16724   0.01      0.00      0.00      0.00       0  pidstat -dru -hl 1 

# Time        UID       PID    %usr %system  %guest   %wait    %CPU   CPU  minflt/s  majflt/s     VSZ     RSS   %MEM   kB_rd/s   kB_wr/s kB_ccwr/s iodelay  Command
22:52:38     1000      2262    2.00    1.00    0.00    0.00    3.00    45      0.00      0.00   22504   17260   0.01      0.00      0.00      0.00       0  pidstat -dru -hl 1 
22:52:38     1000      8537  100.00   15.00    0.00    0.00  100.00     5  29965.00      0.00 5035184 1411792   0.72      0.00 453120.00      0.00       0  ./gensort -a 640000000 generatedfile 
22:52:38     1000      8590    1.00    2.00    0.00    0.00    3.00     3      1.00      0.00   22276   16724   0.01      0.00      4.00      0.00       0  pidstat -dru -hl 1 

# Time        UID       PID    %usr %system  %guest   %wait    %CPU   CPU  minflt/s  majflt/s     VSZ     RSS   %MEM   kB_rd/s   kB_wr/s kB_ccwr/s iodelay  Command
22:52:39     1000      2262    2.00    2.00    0.00    0.00    4.00    45      0.00      0.00   22504   17260   0.01      0.00      4.00      0.00       0  pidstat -dru -hl 1 
22:52:39     1000      8537  100.00   17.00    0.00    0.00  100.00     5  35571.00      0.00 5035184 1411792   0.72      0.00 447488.00      0.00       0  ./gensort -a 640000000 generatedfile 
22:52:39     1000      8590    1.00    3.00    0.00    0.00    4.00     3      1.00      0.00   22276   16724   0.01      0.00      0.00      0.00       0  pidstat -dru -hl 1 

# Time        UID       PID    %usr %system  %guest   %wait    %CPU   CPU  minflt/s  majflt/s     VSZ     RSS   %MEM   kB_rd/s   kB_wr/s kB_ccwr/s iodelay  Command
22:52:40        0        30    1.00    0.00    0.00    0.00    1.00     3      0.00      0.00       0       0   0.00     -1.00     -1.00     -1.00       0  ksoftirqd/3
22:52:40     1000      2262    1.00    3.00    0.00    0.00    4.00    45      0.00      0.00   22504   17260   0.01      0.00      0.00      0.00       0  pidstat -dru -hl 1 
22:52:40     1000      8537  100.00   10.00    0.00    0.00  100.00     5  18074.00      0.00 5035184 1411792   0.72      0.00 445440.00      0.00       0  ./gensort -a 640000000 generatedfile 
22:52:40     1000      8590    1.00    1.00    0.00    0.00    2.00     3      0.00      0.00   22276   16724   0.01      0.00      0.00      0.00       0  pidstat -dru -hl 1 

# Time        UID       PID    %usr %system  %guest   %wait    %CPU   CPU  minflt/s  majflt/s     VSZ     RSS   %MEM   kB_rd/s   kB_wr/s kB_ccwr/s iodelay  Command
22:52:41        0      1032    0.00    1.00    0.00    0.00    1.00    12      0.00      0.00       0       0   0.00     -1.00     -1.00     -1.00       0  kworker/12:1H
22:52:41     1000      2262    1.00    2.00    0.00    0.00    3.00    45      0.00      0.00   22504   17260   0.01      0.00      0.00      0.00       0  pidstat -dru -hl 1 
22:52:41     1000      8537  100.00   26.00    0.00    0.00  100.00     7  98415.00      0.00 5035184 1411792   0.72      0.00 447488.00      0.00       0  ./gensort -a 640000000 generatedfile 
22:52:41     1000      8590    2.00    2.00    0.00    0.00    4.00     5      0.00      0.00   22276   16724   0.01      0.00      0.00      0.00       0  pidstat -dru -hl 1 
22:52:41        0     41349    0.00    1.00    0.00    0.00    1.00     0      0.00      0.00       0       0   0.00     -1.00     -1.00     -1.00       0  kworker/0:0

# Time        UID       PID    %usr %system  %guest   %wait    %CPU   CPU  minflt/s  majflt/s     VSZ     RSS   %MEM   kB_rd/s   kB_wr/s kB_ccwr/s iodelay  Command
22:52:42        0         9    0.00    1.00    0.00    0.00    1.00    24      0.00      0.00       0       0   0.00     -1.00     -1.00     -1.00       0  rcu_sched
22:52:42     1000      2262    0.00    3.00    0.00    0.00    3.00    45      0.00      0.00   22504   17260   0.01      0.00      0.00      0.00       0  pidstat -dru -hl 1 
22:52:42     1000      8537  100.00    7.00    0.00    0.00  100.00     7     46.00      0.00 5035184 1411792   0.72      0.00 454144.00      0.00       0  ./gensort -a 640000000 generatedfile 
22:52:42     1000      8590    2.00    1.00    0.00    0.00    3.00     5      0.00      0.00   22276   16724   0.01      0.00      0.00      0.00       0  pidstat -dru -hl 1 

# Time        UID       PID    %usr %system  %guest   %wait    %CPU   CPU  minflt/s  majflt/s     VSZ     RSS   %MEM   kB_rd/s   kB_wr/s kB_ccwr/s iodelay  Command
22:52:43     1000      2262    1.00    3.00    0.00    0.00    4.00    45      0.00      0.00   22504   17260   0.01      0.00      0.00      0.00       0  pidstat -dru -hl 1 
22:52:43     1000      8537  100.00   30.00    0.00    0.00  100.00     7  75759.00      0.00 5035184 1411792   0.72      0.00 438272.00      0.00       0  ./gensort -a 640000000 generatedfile 
22:52:43     1000      8590    1.00    1.00    0.00    0.00    2.00     5      0.00      0.00   22276   16724   0.01      0.00      4.00      0.00       0  pidstat -dru -hl 1 

# Time        UID       PID    %usr %system  %guest   %wait    %CPU   CPU  minflt/s  majflt/s     VSZ     RSS   %MEM   kB_rd/s   kB_wr/s kB_ccwr/s iodelay  Command
22:52:44        0       891    0.00    1.00    0.00    0.00    1.00    30      0.00      0.00       0       0   0.00     -1.00     -1.00     -1.00       0  kworker/30:1H
22:52:44        0      1056    0.00    1.00    0.00    0.00    1.00    28      0.00      0.00       0       0   0.00     -1.00     -1.00     -1.00       0  kworker/28:1H
22:52:44     1000      2262    0.00    2.00    0.00    0.00    2.00    45      0.00      0.00   22504   17260   0.01      0.00      4.00      0.00       0  pidstat -dru -hl 1 
22:52:44     1000      8537  100.00    9.00    0.00    0.00  100.00     7    140.00      0.00 5035184 1411792   0.72      0.00 454656.00      0.00       0  ./gensort -a 640000000 generatedfile 
22:52:44     1000      8590    1.00    3.00    0.00    0.00    4.00     5      0.00      0.00   22276   16724   0.01      0.00      0.00      0.00       0  pidstat -dru -hl 1 

# Time        UID       PID    %usr %system  %guest   %wait    %CPU   CPU  minflt/s  majflt/s     VSZ     RSS   %MEM   kB_rd/s   kB_wr/s kB_ccwr/s iodelay  Command
22:52:45     1000      2262    2.00    2.00    0.00    0.00    4.00    45      0.00      0.00   22504   17260   0.01      0.00      0.00      0.00       0  pidstat -dru -hl 1 
22:52:45        0      7883    0.00    1.00    0.00    0.00    1.00     0      0.00      0.00       0       0   0.00     -1.00     -1.00     -1.00       0  kworker/u97:0
22:52:45     1000      8537  100.00    8.00    0.00    0.00  100.00     7     38.00      0.00 5035184 1411792   0.72      0.00 448512.00      0.00       0  ./gensort -a 640000000 generatedfile 
22:52:45     1000      8590    1.00    1.00    0.00    0.00    2.00     5      0.00      0.00   22276   16724   0.01      0.00      0.00      0.00       0  pidstat -dru -hl 1 

# Time        UID       PID    %usr %system  %guest   %wait    %CPU   CPU  minflt/s  majflt/s     VSZ     RSS   %MEM   kB_rd/s   kB_wr/s kB_ccwr/s iodelay  Command
22:52:46     1000      2262    1.00    2.00    0.00    0.00    3.00    45      0.00      0.00   22504   17260   0.01      0.00      0.00      0.00       0  pidstat -dru -hl 1 
22:52:46     1000      8537  100.00    9.00    0.00    0.00  100.00     7  28951.00      0.00 5035184 1411792   0.72      0.00 446976.00      0.00       0  ./gensort -a 640000000 generatedfile 
22:52:46     1000      8590    3.00    1.00    0.00    0.00    4.00     5      0.00      0.00   22276   16724   0.01      0.00      0.00      0.00       0  pidstat -dru -hl 1 

# Time        UID       PID    %usr %system  %guest   %wait    %CPU   CPU  minflt/s  majflt/s     VSZ     RSS   %MEM   kB_rd/s   kB_wr/s kB_ccwr/s iodelay  Command
22:52:47        0         1    1.00    0.00    0.00    0.00    1.00    23    235.00      0.00  160056    9276   0.00     -1.00     -1.00     -1.00       0  /sbin/init 
22:52:47        0       894    0.00    0.00    0.00    0.00    0.00     2    129.00      0.00  266004  138504   0.07     -1.00     -1.00     -1.00       0  /lib/systemd/systemd-journald 
22:52:47        0       926    1.00    0.00    0.00    0.00    1.00    32    799.00      0.00   46148    4556   0.00     -1.00     -1.00     -1.00       0  /lib/systemd/systemd-udevd 
22:52:47      102      2047    0.00    1.00    0.00    0.00    1.00     4      0.00      0.00  263036    4784   0.00     -1.00     -1.00     -1.00       0  /usr/sbin/rsyslogd -n 
22:52:47     1000      2262    1.00    2.00    0.00    0.00    3.00    45      0.00      0.00   22504   17260   0.01      0.00      0.00      0.00       0  pidstat -dru -hl 1 
22:52:47     1000      8537  100.00    7.00    0.00    0.00  100.00     7      0.00      0.00 5035184 1411792   0.72      0.00 445952.00      0.00       0  ./gensort -a 640000000 generatedfile 
22:52:47     1000      8590    2.00    1.00    0.00    0.00    3.00     5      0.00      0.00   22276   16724   0.01      0.00      0.00      0.00       0  pidstat -dru -hl 1 

# Time        UID       PID    %usr %system  %guest   %wait    %CPU   CPU  minflt/s  majflt/s     VSZ     RSS   %MEM   kB_rd/s   kB_wr/s kB_ccwr/s iodelay  Command