Linux 4.15.0-91-generic (team-24-hw5-i2) 	04/13/20 	_x86_64_	(48 CPU)

# Time        UID       PID    %usr %system  %guest   %wait    %CPU   CPU  minflt/s  majflt/s     VSZ     RSS   %MEM   kB_rd/s   kB_wr/s kB_ccwr/s iodelay  Command
22:19:27        0         9    0.00    0.96    0.00    0.00    0.96     2      0.00      0.00       0       0   0.00     -1.00     -1.00     -1.00       0  rcu_sched
22:19:27     1000      2262    0.96    2.88    0.00    0.00    3.85    29      0.96      0.00   22504   17200   0.01      0.00      3.85      0.00       0  pidstat -dru -hl 1 
22:19:27     1000      2516  100.00   57.69    0.00    0.00  100.00    43      0.96      0.00 38054932 5964064   3.03   2707.69 120292.31      0.00       0  java SharedMemorySort generatedfile outfile 
22:19:27     1000      5297    0.96    0.96    0.00    0.00    1.92    26      3.85      0.00   34544    4064   0.00      0.00      0.00      0.00       0  top 
22:19:27     1000      5300  100.00    7.69    0.00    0.00  100.00    46      0.00      0.00 5035184 1400028   0.71      0.00 442092.31      0.00       0  ./gensort -a 640000000 generatedfile 
22:19:27     1000      5351    1.92    1.92    0.00    0.00    3.85     7   2601.92      0.00   22720   16448   0.01      0.00      0.00      0.00       0  pidstat -dru -hl 1 

# Time        UID       PID    %usr %system  %guest   %wait    %CPU   CPU  minflt/s  majflt/s     VSZ     RSS   %MEM   kB_rd/s   kB_wr/s kB_ccwr/s iodelay  Command
22:19:28        0       367    0.00    3.00    0.00    0.00    3.00     0      0.00      0.00       0       0   0.00     -1.00     -1.00     -1.00       0  kswapd0
22:19:28        0       368    0.00    3.00    0.00    0.00    3.00     9      0.00      0.00       0       0   0.00     -1.00     -1.00     -1.00       0  kswapd1
22:19:28        0       826    0.00    1.00    0.00    0.00    1.00     4      0.00      0.00       0       0   0.00     -1.00     -1.00     -1.00       0  kworker/4:1H
22:19:28        0       877    0.00    1.00    0.00    0.00    1.00     2      0.00      0.00       0       0   0.00     -1.00     -1.00     -1.00       0  kworker/2:1H
22:19:28        0       894    0.00    0.00    0.00    0.00    0.00     4     10.00      0.00  257812  134220   0.07     -1.00     -1.00     -1.00       0  /lib/systemd/systemd-journald 
22:19:28        0       926    0.00    0.00    0.00    0.00    0.00    35      2.00      0.00   46148    4556   0.00     -1.00     -1.00     -1.00       0  /lib/systemd/systemd-udevd 
22:19:28        0      2174    0.00    1.00    0.00    0.00    1.00    28      0.00      0.00  110780    3812   0.00     -1.00     -1.00     -1.00       0  /usr/sbin/irqbalance --foreground 
22:19:28     1000      2262    2.00    1.00    0.00    0.00    3.00    29      1.00      0.00   22504   17200   0.01      0.00      0.00      0.00       0  pidstat -dru -hl 1 
22:19:28     1000      2516  100.00   50.00    0.00    0.00  100.00    43    142.00      0.00 38054932 5963304   3.03   3640.00 123368.00      0.00       0  java SharedMemorySort generatedfile outfile 
22:19:28     1000      5300  100.00   11.00    0.00    0.00  100.00    46      0.00      0.00 5035184 1400028   0.71      0.00 430080.00      0.00       0  ./gensort -a 640000000 generatedfile 
22:19:28     1000      5351    2.00    2.00    0.00    0.00    4.00     7    219.00      0.00   22720   17240   0.01      0.00      0.00      0.00       0  pidstat -dru -hl 1 

# Time        UID       PID    %usr %system  %guest   %wait    %CPU   CPU  minflt/s  majflt/s     VSZ     RSS   %MEM   kB_rd/s   kB_wr/s kB_ccwr/s iodelay  Command
22:19:29        0         1    0.00    1.00    0.00    0.00    1.00    44    227.00      0.00  160056    9276   0.00     -1.00     -1.00     -1.00       0  /sbin/init 
22:19:29        0       790    0.00    0.00    0.00    0.00    0.00    10      0.00      0.00       0       0   0.00     -1.00     -1.00     -1.00       6  jbd2/sda1-8
22:19:29        0       894    0.00    0.00    0.00    0.00    0.00     4     19.00      0.00  257812  134228   0.07     -1.00     -1.00     -1.00       5  /lib/systemd/systemd-journald 
22:19:29        0       926    1.00    1.00    0.00    0.00    2.00    46   1198.00      0.00   46148    4556   0.00     -1.00     -1.00     -1.00       0  /lib/systemd/systemd-udevd 
22:19:29      103      2252    1.00    0.00    0.00    0.00    1.00    34      0.00      0.00   39760    3836   0.00     -1.00     -1.00     -1.00       0  /usr/bin/dbus-daemon --system --address=systemd: --nofork --nopidfile --systemd-activation --syslog-only 
22:19:29     1000      2262    2.00    2.00    0.00    0.00    4.00    29      0.00      0.00   22504   17200   0.01      0.00      4.00      0.00       0  pidstat -dru -hl 1 
22:19:29     1000      2516  100.00   59.00    0.00    0.00  100.00    43    237.00      0.00 38054932 5964332   3.03   3456.00 112504.00      0.00       0  java SharedMemorySort generatedfile outfile 
22:19:29        0      5029    0.00    8.00    0.00    0.00    8.00    10      0.00      0.00       0       0   0.00     -1.00     -1.00     -1.00      73  kworker/u97:2
22:19:29     1000      5300   44.00    5.00    0.00    0.00   49.00    46      0.00      0.00 5035184 1400028   0.71      0.00 146432.00      0.00       0  ./gensort -a 640000000 generatedfile 
22:19:29     1000      5351    0.00    3.00    0.00    0.00    3.00     7      0.00      0.00   22720   17240   0.01      0.00      0.00      0.00       0  pidstat -dru -hl 1 

# Time        UID       PID    %usr %system  %guest   %wait    %CPU   CPU  minflt/s  majflt/s     VSZ     RSS   %MEM   kB_rd/s   kB_wr/s kB_ccwr/s iodelay  Command
22:19:30     1000      2262    2.00    2.00    0.00    0.00    4.00    31      0.00      0.00   22504   17200   0.01      0.00      0.00      0.00       0  pidstat -dru -hl 1 
22:19:30     1000      2516  100.00   57.00    0.00    0.00  100.00    43    173.00      0.00 38054932 5963824   3.03   3712.00 121448.00      0.00       0  java SharedMemorySort generatedfile outfile 
22:19:30        0      5029    0.00   10.00    0.00    0.00   10.00    12      0.00      0.00       0       0   0.00     -1.00     -1.00     -1.00      89  kworker/u97:2
22:19:30     1000      5297    1.00    1.00    0.00    0.00    2.00    26      0.00      0.00   34544    4064   0.00      0.00      0.00      0.00       0  top 
22:19:30     1000      5300   34.00    3.00    0.00    0.00   37.00    46      0.00      0.00 5035184 1400028   0.71      0.00 132096.00      0.00       0  ./gensort -a 640000000 generatedfile 
22:19:30     1000      5351    0.00    4.00    0.00    0.00    4.00     7      0.00      0.00   22720   17240   0.01      0.00      4.00      0.00       0  pidstat -dru -hl 1 

# Time        UID       PID    %usr %system  %guest   %wait    %CPU   CPU  minflt/s  majflt/s     VSZ     RSS   %MEM   kB_rd/s   kB_wr/s kB_ccwr/s iodelay  Command
22:19:31     1000      2262    3.00    1.00    0.00    0.00    4.00    31      0.00      0.00   22504   17200   0.01      0.00      0.00      0.00       0  pidstat -dru -hl 1 
22:19:31     1000      2516  100.00   61.00    0.00    0.00  100.00    43    225.00      0.00 38054932 5964336   3.03   3840.00 120520.00      0.00       0  java SharedMemorySort generatedfile outfile 
22:19:31        0      5029    0.00   10.00    0.00    0.00   10.00    14      0.00      0.00       0       0   0.00     -1.00     -1.00     -1.00      90  kworker/u97:2
22:19:31     1000      5300   39.00    5.00    0.00    0.00   44.00    46      0.00      0.00 5035184 1400028   0.71      0.00 138240.00      0.00       0  ./gensort -a 640000000 generatedfile 
22:19:31     1000      5351    2.00    1.00    0.00    0.00    3.00     7      0.00      0.00   22720   17240   0.01      0.00      0.00      0.00       0  pidstat -dru -hl 1 

# Time        UID       PID    %usr %system  %guest   %wait    %CPU   CPU  minflt/s  majflt/s     VSZ     RSS   %MEM   kB_rd/s   kB_wr/s kB_ccwr/s iodelay  Command
22:19:32        0         9    0.00    1.00    0.00    0.00    1.00    20      0.00      0.00       0       0   0.00     -1.00     -1.00     -1.00       0  rcu_sched
22:19:32     1000      2262    1.00    1.00    0.00    0.00    2.00    31      0.00      0.00   22504   17200   0.01      0.00      4.00      0.00       0  pidstat -dru -hl 1 
22:19:32     1000      2516  100.00   55.00    0.00    0.00  100.00    43     22.00      0.00 38054932 5963840   3.03   3328.00 174984.00      0.00       0  java SharedMemorySort generatedfile outfile 
22:19:32        0      5029    0.00    9.00    0.00    0.00    9.00    18      0.00      0.00       0       0   0.00     -1.00     -1.00     -1.00      92  kworker/u97:2
22:19:32     1000      5300   33.00    6.00    0.00    0.00   39.00    46      0.00      0.00 5035184 1400028   0.71      0.00 139776.00      0.00       0  ./gensort -a 640000000 generatedfile 
22:19:32     1000      5351    2.00    1.00    0.00    0.00    3.00     7      0.00      0.00   22720   17240   0.01      0.00      0.00      0.00       0  pidstat -dru -hl 1 

# Time        UID       PID    %usr %system  %guest   %wait    %CPU   CPU  minflt/s  majflt/s     VSZ     RSS   %MEM   kB_rd/s   kB_wr/s kB_ccwr/s iodelay  Command
22:19:33     1000      2262    1.00    3.00    0.00    0.00    4.00    31      0.00      0.00   22504   17200   0.01      0.00      0.00      0.00       0  pidstat -dru -hl 1 
22:19:33     1000      2516  100.00   48.00    0.00    0.00  100.00    43    349.00      0.00 38054932 5965400   3.03   2944.00 239056.00      0.00       0  java SharedMemorySort generatedfile outfile 
22:19:33        0      5029    0.00    4.00    0.00    0.00    4.00     0      0.00      0.00       0       0   0.00     -1.00     -1.00     -1.00      33  kworker/u97:2
22:19:33     1000      5297    1.00    2.00    0.00    0.00    3.00    26      0.00      0.00   34544    4064   0.00      0.00      0.00      0.00       0  top 
22:19:33     1000      5300   71.00    9.00    0.00    0.00   80.00    46      0.00      0.00 5035184 1400028   0.71      0.00 297984.00      0.00       0  ./gensort -a 640000000 generatedfile 
22:19:33     1000      5351    3.00    2.00    0.00    0.00    5.00     7      0.00      0.00   22720   17240   0.01      0.00      4.00      0.00       0  pidstat -dru -hl 1 

# Time        UID       PID    %usr %system  %guest   %wait    %CPU   CPU  minflt/s  majflt/s     VSZ     RSS   %MEM   kB_rd/s   kB_wr/s kB_ccwr/s iodelay  Command
22:19:34     1000      2262    1.00    3.00    0.00    0.00    4.00    31      0.00      0.00   22504   17200   0.01      0.00      0.00      0.00       0  pidstat -dru -hl 1 
22:19:34     1000      2516  100.00   57.00    0.00    0.00  100.00    43     23.00      0.00 38054932 5965400   3.03   3328.00 205104.00      0.00       0  java SharedMemorySort generatedfile outfile 
22:19:34     1000      5300  100.00   13.00    0.00    0.00  100.00    46      0.00      0.00 5035184 1400028   0.71      0.00 416768.00      0.00       0  ./gensort -a 640000000 generatedfile 
22:19:34     1000      5351    1.00    2.00    0.00    0.00    3.00     7      0.00      0.00   22720   17240   0.01      0.00      0.00      0.00       0  pidstat -dru -hl 1 

# Time        UID       PID    %usr %system  %guest   %wait    %CPU   CPU  minflt/s  majflt/s     VSZ     RSS   %MEM   kB_rd/s   kB_wr/s kB_ccwr/s iodelay  Command
22:19:35        0       809    0.00    1.00    0.00    0.00    1.00    22      0.00      0.00       0       0   0.00     -1.00     -1.00     -1.00       0  kworker/22:1H
22:19:35     1000      2262    2.00    1.00    0.00    0.00    3.00    31      0.00      0.00   22504   17200   0.01      0.00      0.00      0.00       0  pidstat -dru -hl 1 
22:19:35     1000      2516  100.00   55.00    0.00    0.00  100.00    43     20.00      0.00 38054932 5964372   3.03   3712.00 122852.00      0.00       0  java SharedMemorySort generatedfile outfile 
22:19:35     1000      5300  100.00   14.00    0.00    0.00  100.00    46    582.00      0.00 5035184 1404976   0.71      0.00 420864.00      0.00       0  ./gensort -a 640000000 generatedfile 
22:19:35     1000      5351    2.00    2.00    0.00    0.00    4.00     7      0.00      0.00   22720   17240   0.01      0.00      0.00      0.00       0  pidstat -dru -hl 1 

# Time        UID       PID    %usr %system  %guest   %wait    %CPU   CPU  minflt/s  majflt/s     VSZ     RSS   %MEM   kB_rd/s   kB_wr/s kB_ccwr/s iodelay  Command
22:19:36     1000      2262    1.00    3.00    0.00    0.00    4.00    31      0.00      0.00   22504   17200   0.01      0.00      4.00      0.00       0  pidstat -dru -hl 1 
22:19:36     1000      2516  100.00   52.00    0.00    0.00  100.00    43    125.00      0.00 38054932 5965148   3.03   3840.00 123108.00      0.00       0  java SharedMemorySort generatedfile outfile 
22:19:36     1000      5297    1.00    2.00    0.00    0.00    3.00    26      0.00      0.00   34544    4064   0.00      0.00      0.00      0.00       0  top 
22:19:36     1000      5300  100.00   22.00    0.00    0.00  100.00    10  18616.00      0.00 5035184 1409372   0.72      0.00 420352.00      0.00       0  ./gensort -a 640000000 generatedfile 
22:19:36     1000      5351    1.00    2.00    0.00    0.00    3.00     7      0.00      0.00   22720   17240   0.01      0.00      4.00      0.00       0  pidstat -dru -hl 1 

# Time        UID       PID    %usr %system  %guest   %wait    %CPU   CPU  minflt/s  majflt/s     VSZ     RSS   %MEM   kB_rd/s   kB_wr/s kB_ccwr/s iodelay  Command
22:19:37        0         9    0.00    1.00    0.00    0.00    1.00    16      0.00      0.00       0       0   0.00     -1.00     -1.00     -1.00       0  rcu_sched
22:19:37     1000      2262    1.00    3.00    0.00    0.00    4.00    31      0.00      0.00   22504   17200   0.01      0.00      0.00      0.00       0  pidstat -dru -hl 1 
22:19:37     1000      2516  100.00   53.00    0.00    0.00  100.00    43    232.00      0.00 38054932 5966448   3.03   3584.00 120992.00      0.00       0  java SharedMemorySort generatedfile outfile 
22:19:37     1000      5300  100.00   17.00    0.00    0.00  100.00    22  10713.00      0.00 5035184 1410148   0.72      0.00 420352.00      0.00       0  ./gensort -a 640000000 generatedfile 
22:19:37     1000      5351    2.00    2.00    0.00    0.00    4.00     7      0.00      0.00   22720   17240   0.01      0.00      0.00      0.00       0  pidstat -dru -hl 1 

# Time        UID       PID    %usr %system  %guest   %wait    %CPU   CPU  minflt/s  majflt/s     VSZ     RSS   %MEM   kB_rd/s   kB_wr/s kB_ccwr/s iodelay  Command
22:19:38        0       142    1.00    0.00    0.00    0.00    1.00    22      0.00      0.00       0       0   0.00     -1.00     -1.00     -1.00       0  watchdog/22
22:19:38     1000      2262    1.00    2.00    0.00    0.00    3.00    31      0.00      0.00   22504   17200   0.01      0.00      0.00      0.00       0  pidstat -dru -hl 1 
22:19:38     1000      2516  100.00   56.00    0.00    0.00  100.00    43     27.00      0.00 38054932 5965684   3.03   3200.00 120896.00      0.00       0  java SharedMemorySort generatedfile outfile 
22:19:38        0      5029    0.00    7.00    0.00    0.00    7.00    22      0.00      0.00       0       0   0.00     -1.00     -1.00     -1.00      47  kworker/u97:2
22:19:38     1000      5300   56.00   16.00    0.00    0.00   72.00    32  18783.00      0.00 5035184 1410148   0.72      0.00 235412.00      0.00       0  ./gensort -a 640000000 generatedfile 
22:19:38     1000      5351    0.00    3.00    0.00    0.00    3.00     7      0.00      0.00   22720   17240   0.01      0.00      0.00      0.00       0  pidstat -dru -hl 1 

# Time        UID       PID    %usr %system  %guest   %wait    %CPU   CPU  minflt/s  majflt/s     VSZ     RSS   %MEM   kB_rd/s   kB_wr/s kB_ccwr/s iodelay  Command
22:19:39        0         1    1.00    0.00    0.00    0.00    1.00    46    235.00      0.00  160056    9276   0.00     -1.00     -1.00     -1.00       0  /sbin/init 
22:19:39        0       790    0.00    1.00    0.00    0.00    1.00    32      0.00      0.00       0       0   0.00     -1.00     -1.00     -1.00       9  jbd2/sda1-8
22:19:39        0       894    0.00    0.00    0.00    0.00    0.00     4     34.00      0.00  257812  134228   0.07     -1.00     -1.00     -1.00       0  /lib/systemd/systemd-journald 
22:19:39        0       926    0.00    1.00    0.00    0.00    1.00     4    729.00      0.00   46148    4556   0.00     -1.00     -1.00     -1.00       0  /lib/systemd/systemd-udevd 
22:19:39     1000      2262    1.00    3.00    0.00    0.00    4.00    31      2.00      0.00   22504   17200   0.01      0.00      4.00      0.00       0  pidstat -dru -hl 1 
22:19:39     1000      2516  100.00   53.00    0.00    0.00  100.00    43    149.00      0.00 38054932 5966468   3.03   2944.00 102288.00      0.00       0  java SharedMemorySort generatedfile outfile 
22:19:39        0      5029    0.00   10.00    0.00    0.00   10.00    14      0.00      0.00       0       0   0.00     -1.00     -1.00     -1.00      95  kworker/u97:2
22:19:39     1000      5297    2.00    1.00    0.00    0.00    3.00     1      0.00      0.00   34544    4064   0.00      0.00      0.00      0.00       0  top 
22:19:39     1000      5300   41.00   19.00    0.00    0.00   60.00    32  30847.00      0.00 5035184 1410148   0.72      0.00 122988.00      0.00       0  ./gensort -a 640000000 generatedfile 
22:19:39     1000      5351    2.00    2.00    0.00    0.00    4.00     7      0.00      0.00   22720   17240   0.01      0.00      0.00      0.00       2  pidstat -dru -hl 1 

# Time        UID       PID    %usr %system  %guest   %wait    %CPU   CPU  minflt/s  majflt/s     VSZ     RSS   %MEM   kB_rd/s   kB_wr/s kB_ccwr/s iodelay  Command
22:19:40     1000      2262    1.00    2.00    0.00    0.00    3.00    31      0.00      0.00   22504   17200   0.01      0.00      0.00      0.00       0  pidstat -dru -hl 1 
22:19:40     1000      2516  100.00   52.00    0.00    0.00  100.00    43    220.00      0.00 38054932 5967252   3.04   2944.00 175880.00      0.00       0  java SharedMemorySort generatedfile outfile 
22:19:40        0      5029    0.00    8.00    0.00    0.00    8.00    18      0.00      0.00       0       0   0.00     -1.00     -1.00     -1.00      90  kworker/u97:2
22:19:40     1000      5300   42.00   20.00    0.00    0.00   62.00    32  33544.00      0.00 5035184 1410148   0.72      0.00 134144.00      0.00       0  ./gensort -a 640000000 generatedfile 
22:19:40     1000      5351    1.00    3.00    0.00    0.00    4.00     7      3.00      0.00   22720   17240   0.01      0.00      4.00      0.00       0  pidstat -dru -hl 1 

# Time        UID       PID    %usr %system  %guest   %wait    %CPU   CPU  minflt/s  majflt/s     VSZ     RSS   %MEM   kB_rd/s   kB_wr/s kB_ccwr/s iodelay  Command
22:19:41        0         9    0.00    1.00    0.00    0.00    1.00    20      0.00      0.00       0       0   0.00     -1.00     -1.00     -1.00       0  rcu_sched
22:19:41        0       915    0.00    1.00    0.00    0.00    1.00    18      0.00      0.00       0       0   0.00     -1.00     -1.00     -1.00       0  kworker/18:1H
22:19:41     1000      2262    1.00    2.00    0.00    0.00    3.00    31      0.00      0.00   22504   17200   0.01      0.00      0.00      0.00       0  pidstat -dru -hl 1 
22:19:41     1000      2516  100.00   53.00    0.00    0.00  100.00    43  65845.00      0.00 38054932 5966856   3.03   2944.00 275856.00      0.00       0  java SharedMemorySort generatedfile outfile 
22:19:41        0      5029    0.00   11.00    0.00    0.00   11.00    18      0.00      0.00       0       0   0.00     -1.00     -1.00     -1.00      90  kworker/u97:2
22:19:41     1000      5300   39.00   21.00    0.00    0.00   60.00    32  32543.00      0.00 5035184 1410148   0.72      0.00 130048.00      0.00       0  ./gensort -a 640000000 generatedfile 
22:19:41     1000      5351    2.00    1.00    0.00    0.00    3.00     7      0.00      0.00   22720   17240   0.01      0.00      0.00      0.00       0  pidstat -dru -hl 1 
22:19:41        0     48537    0.00    1.00    0.00    0.00    1.00    41      0.00      0.00       0       0   0.00     -1.00     -1.00     -1.00       0  kworker/41:2

# Time        UID       PID    %usr %system  %guest   %wait    %CPU   CPU  minflt/s  majflt/s     VSZ     RSS   %MEM   kB_rd/s   kB_wr/s kB_ccwr/s iodelay  Command
22:19:42     1000      2262    2.00    3.00    0.00    0.00    5.00    31      0.00      0.00   22504   17200   0.01      0.00      4.00      0.00       0  pidstat -dru -hl 1 
22:19:42     1000      2516  100.00   71.00    0.00    0.00  100.00    43 196756.00      0.00 38054932 5967372   3.04   3200.00 397648.00      0.00       0  java SharedMemorySort generatedfile outfile 
22:19:42        0      5029    0.00    6.00    0.00    0.00    6.00     0      0.00      0.00       0       0   0.00     -1.00     -1.00     -1.00      57  kworker/u97:2
22:19:42     1000      5297    1.00    2.00    0.00    0.00    3.00     7      0.00      0.00   34544    4064   0.00      0.00      0.00      0.00       0  top 
22:19:42     1000      5300   62.00   29.00    0.00    0.00   91.00    32  51767.00      0.00 5035184 1411340   0.72      0.00 205312.00      0.00       0  ./gensort -a 640000000 generatedfile 
22:19:42     1000      5351    1.00    2.00    0.00    0.00    3.00     7      0.00      0.00   22720   17240   0.01      0.00      0.00      0.00       0  pidstat -dru -hl 1 

# Time        UID       PID    %usr %system  %guest   %wait    %CPU   CPU  minflt/s  majflt/s     VSZ     RSS   %MEM   kB_rd/s   kB_wr/s kB_ccwr/s iodelay  Command
22:19:43     1000      2262    1.00    2.00    0.00    0.00    3.00    31      0.00      0.00   22504   17200   0.01      0.00      0.00      0.00       0  pidstat -dru -hl 1 
22:19:43     1000      2516  100.00   54.00    0.00    0.00  100.00    43 111702.00      0.00 38054932 5967896   3.04   3072.00 155656.00      0.00       0  java SharedMemorySort generatedfile outfile 
22:19:43     1000      5300  100.00   49.00    0.00    0.00  100.00    32 104369.00      0.00 5035184 1411848   0.72      0.00 416256.00      0.00       0  ./gensort -a 640000000 generatedfile 
22:19:43     1000      5351    2.00    3.00    0.00    0.00    5.00     7      0.00      0.00   22720   17240   0.01      0.00      4.00      0.00       0  pidstat -dru -hl 1 

# Time        UID       PID    %usr %system  %guest   %wait    %CPU   CPU  minflt/s  majflt/s     VSZ     RSS   %MEM   kB_rd/s   kB_wr/s kB_ccwr/s iodelay  Command
22:19:44     1000      2262    1.00    3.00    0.00    0.00    4.00    31      0.00      0.00   22504   17200   0.01      0.00      0.00      0.00       0  pidstat -dru -hl 1 
22:19:44     1000      2516  100.00   51.00    0.00    0.00  100.00    43    163.00      0.00 38054932 5966872   3.04   3200.00 121192.00      0.00       0  java SharedMemorySort generatedfile outfile 
22:19:44     1000      5300  100.00   50.00    0.00    0.00  100.00    38 104656.00      0.00 5035184 1411848   0.72      0.00 407552.00      0.00       0  ./gensort -a 640000000 generatedfile 
22:19:44     1000      5351    1.00    1.00    0.00    0.00    2.00     7      0.00      0.00   22720   17240   0.01      0.00      0.00      0.00       0  pidstat -dru -hl 1 

# Time        UID       PID    %usr %system  %guest   %wait    %CPU   CPU  minflt/s  majflt/s     VSZ     RSS   %MEM   kB_rd/s   kB_wr/s kB_ccwr/s iodelay  Command
22:19:45     1000      2262    1.00    2.00    0.00    0.00    3.00    31      0.00      0.00   22504   17200   0.01      0.00      0.00      0.00       0  pidstat -dru -hl 1 
22:19:45     1000      2516  100.00   48.00    0.00    0.00  100.00    43    230.00      0.00 38054932 5967652   3.04   3328.00 119424.00      0.00       0  java SharedMemorySort generatedfile outfile 
22:19:45     1000      5297    1.00    2.00    0.00    0.00    3.00     7      0.00      0.00   34544    4064   0.00      0.00      0.00      0.00       0  top 
22:19:45     1000      5300  100.00   40.00    0.00    0.00  100.00    46 106573.00      0.00 5035184 1411848   0.72      0.00 423936.00      0.00       0  ./gensort -a 640000000 generatedfile 
22:19:45     1000      5351    1.00    3.00    0.00    0.00    4.00     7      0.00      0.00   22720   17240   0.01      0.00      0.00      0.00       0  pidstat -dru -hl 1 
22:19:45        0     41349    0.00    1.00    0.00    0.00    1.00     0      0.00      0.00       0       0   0.00     -1.00     -1.00     -1.00       0  kworker/0:0

# Time        UID       PID    %usr %system  %guest   %wait    %CPU   CPU  minflt/s  majflt/s     VSZ     RSS   %MEM   kB_rd/s   kB_wr/s kB_ccwr/s iodelay  Command
22:19:46        0         9    0.00    1.00    0.00    0.00    1.00    20      0.00      0.00       0       0   0.00     -1.00     -1.00     -1.00       0  rcu_sched
22:19:46        0       624    0.00    1.00    0.00    0.00    1.00    16      0.00      0.00       0       0   0.00     -1.00     -1.00     -1.00       0  kworker/16:1H
22:19:46     1000      2262    0.00    3.00    0.00    0.00    3.00    31      0.00      0.00   22504   17200   0.01      0.00      4.00      0.00       0  pidstat -dru -hl 1 
22:19:46     1000      2516  100.00   53.00    0.00    0.00  100.00    43  89428.00      0.00 38054932 5966624   3.03   3712.00 113304.00      0.00       0  java SharedMemorySort generatedfile outfile 
22:19:46     1000      5300  100.00   27.00    0.00    0.00  100.00    46  75405.00      0.00 5035184 1411848   0.72      0.00 417792.00      0.00       0  ./gensort -a 640000000 generatedfile 
22:19:46     1000      5351    2.00    2.00    0.00    0.00    4.00     7      0.00      0.00   22720   17240   0.01      0.00      4.00      0.00       0  pidstat -dru -hl 1 

# Time        UID       PID    %usr %system  %guest   %wait    %CPU   CPU  minflt/s  majflt/s     VSZ     RSS   %MEM   kB_rd/s   kB_wr/s kB_ccwr/s iodelay  Command
22:19:47     1000      2262    3.00    1.00    0.00    0.00    4.00    31      0.00      0.00   22504   17200   0.01      0.00      0.00      0.00       0  pidstat -dru -hl 1 
22:19:47     1000      2516  100.00   53.00    0.00    0.00  100.00    43  91409.00      0.00 38054932 5967408   3.04   3584.00 115804.00      0.00       0  java SharedMemorySort generatedfile outfile 
22:19:47        0      5029    0.00    2.00    0.00    1.00    2.00     0      0.00      0.00       0       0   0.00     -1.00     -1.00     -1.00       9  kworker/u97:2
22:19:47     1000      5300  100.00   33.00    0.00    0.00  100.00    46  84468.00      0.00 5035184 1411848   0.72      0.00 380928.00      0.00       0  ./gensort -a 640000000 generatedfile 
22:19:47     1000      5351    2.00    1.00    0.00    0.00    3.00     7      0.00      0.00   22720   17240   0.01      0.00      0.00      0.00       0  pidstat -dru -hl 1 
22:19:47        0     31132    0.00    1.00    0.00    0.00    1.00    42      0.00      0.00       0       0   0.00     -1.00     -1.00     -1.00       0  kworker/42:2

# Time        UID       PID    %usr %system  %guest   %wait    %CPU   CPU  minflt/s  majflt/s     VSZ     RSS   %MEM   kB_rd/s   kB_wr/s kB_ccwr/s iodelay  Command
22:19:48     1000      2262    1.00    2.00    0.00    0.00    3.00    31      0.00      0.00   22504   17200   0.01      0.00      4.00      0.00       0  pidstat -dru -hl 1 
22:19:48     1000      2516  100.00   58.00    0.00    0.00  100.00    43 113035.00      0.00 38054932 5968720   3.04   3200.00 115252.00      0.00       0  java SharedMemorySort generatedfile outfile 
22:19:48        0      5029    0.00    9.00    0.00    0.00    9.00    10      0.00      0.00       0       0   0.00     -1.00     -1.00     -1.00      94  kworker/u97:2
22:19:48     1000      5300   43.00    4.00    0.00    0.00   47.00    46     17.00      0.00 5035184 1411848   0.72      0.00 142848.00      0.00       0  ./gensort -a 640000000 generatedfile 
22:19:48     1000      5351    3.00    2.00    0.00    0.00    5.00     7      0.00      0.00   22720   17240   0.01      0.00      0.00      0.00       0  pidstat -dru -hl 1 

# Time        UID       PID    %usr %system  %guest   %wait    %CPU   CPU  minflt/s  majflt/s     VSZ     RSS   %MEM   kB_rd/s   kB_wr/s kB_ccwr/s iodelay  Command
22:19:49        0         1    0.00    0.00    0.00    0.00    0.00     8    241.00      0.00  160056    9276   0.00     -1.00     -1.00     -1.00       0  /sbin/init 
22:19:49        0       790    0.00    0.00    0.00    0.00    0.00    34      0.00      0.00       0       0   0.00     -1.00     -1.00     -1.00       1  jbd2/sda1-8
22:19:49        0       894    0.00    1.00    0.00    0.00    1.00     4     33.00      0.00  257812  134248   0.07     -1.00     -1.00     -1.00       0  /lib/systemd/systemd-journald 
22:19:49        0       926    0.00    1.00    0.00    0.00    1.00    10    816.00      0.00   46148    4556   0.00     -1.00     -1.00     -1.00       0  /lib/systemd/systemd-udevd 
22:19:49      102      2047    1.00    0.00    0.00    0.00    1.00     2      0.00      0.00  263036    4784   0.00     -1.00     -1.00     -1.00       0  /usr/sbin/rsyslogd -n 
22:19:49     1000      2262    2.00    2.00    0.00    0.00    4.00    31      0.00      0.00   22504   17200   0.01      0.00      4.00      0.00       0  pidstat -dru -hl 1 
22:19:49     1000      2516  100.00   60.00    0.00    0.00  100.00    43    467.00      0.00 38054932 5969980   3.04   3072.00 116152.00      0.00       0  java SharedMemorySort generatedfile outfile 
22:19:49        0      5029    0.00    8.00    0.00    0.00    8.00    24      0.00      0.00       0       0   0.00     -1.00     -1.00     -1.00      90  kworker/u97:2