Linux 4.15.0-91-generic (team-24-hw5-i2) 	04/13/20 	_x86_64_	(48 CPU)

# Time        UID       PID    %usr %system  %guest   %wait    %CPU   CPU  minflt/s  majflt/s     VSZ     RSS   %MEM   kB_rd/s   kB_wr/s kB_ccwr/s iodelay  Command
21:23:32     1000     47682    0.97    2.91    0.00    0.00    3.88    45      3.88      0.00   34444    3996   0.00      0.00      0.00      0.00       0  top 
21:23:32     1000     47684    0.00    0.00    0.00    0.00    0.00    47      7.77      0.00    4628     776   0.00      0.00     50.49      0.00       0  sh run1g.sh 
21:23:32     1000     47792    1.94    1.94    0.00    0.00    3.88    28   2533.98      0.00   22156   16240   0.01      0.00      0.00      0.00       0  pidstat -dru -hl 1 
21:23:32     1000     47793  100.00   13.59    0.00    0.00  100.00    12  59840.78      0.00 37788676  256852   0.13  76038.83     31.07      0.00       0  java SharedMemorySort generatedfile outfile 

# Time        UID       PID    %usr %system  %guest   %wait    %CPU   CPU  minflt/s  majflt/s     VSZ     RSS   %MEM   kB_rd/s   kB_wr/s kB_ccwr/s iodelay  Command
21:23:33        0      2195    1.00    0.00    0.00    0.00    1.00    21      2.00      0.00  779800    3488   0.00     -1.00     -1.00     -1.00       0  /usr/sbin/nscd 
21:23:33     1000     47792    1.00    2.00    0.00    0.00    3.00    28    104.00      0.00   22156   16768   0.01      0.00      0.00      0.00       0  pidstat -dru -hl 1 
21:23:33     1000     47793  100.00    9.00    0.00    0.00  100.00    12  59578.00      0.00 37788676  303152   0.15   7936.00  77344.00      0.00       0  java SharedMemorySort generatedfile outfile 

# Time        UID       PID    %usr %system  %guest   %wait    %CPU   CPU  minflt/s  majflt/s     VSZ     RSS   %MEM   kB_rd/s   kB_wr/s kB_ccwr/s iodelay  Command
21:23:34     1000     47792    1.00    2.00    0.00    0.00    3.00    28      0.00      0.00   22156   16768   0.01      0.00      0.00      0.00       0  pidstat -dru -hl 1 
21:23:34     1000     47793   96.00   12.00    0.00    0.00  100.00    12 101069.00      0.00 37788676  514476   0.26  70144.00      0.00      0.00       0  java SharedMemorySort generatedfile outfile 

# Time        UID       PID    %usr %system  %guest   %wait    %CPU   CPU  minflt/s  majflt/s     VSZ     RSS   %MEM   kB_rd/s   kB_wr/s kB_ccwr/s iodelay  Command
21:23:35        0     32227    0.00    1.00    0.00    0.00    1.00    16      0.00      0.00       0       0   0.00     -1.00     -1.00     -1.00       0  kworker/16:2
21:23:35     1000     47682    0.00    2.00    0.00    0.00    2.00    45      0.00      0.00   34444    3996   0.00      0.00      0.00      0.00       0  top 
21:23:35     1000     47792    0.00    3.00    0.00    0.00    3.00    28      0.00      0.00   22156   16768   0.01      0.00      0.00      0.00       0  pidstat -dru -hl 1 
21:23:35     1000     47793  100.00   14.00    0.00    0.00  100.00    12  25466.00      0.00 37788676  580668   0.30  78208.00  77344.00      0.00       0  java SharedMemorySort generatedfile outfile 

# Time        UID       PID    %usr %system  %guest   %wait    %CPU   CPU  minflt/s  majflt/s     VSZ     RSS   %MEM   kB_rd/s   kB_wr/s kB_ccwr/s iodelay  Command
21:23:36     1000     47792    2.00    2.00    0.00    0.00    4.00    28      0.00      0.00   22156   16768   0.01      0.00      0.00      0.00       0  pidstat -dru -hl 1 
21:23:36     1000     47793   87.00    9.00    0.00    0.00   96.00    12  11430.00      0.00 37788676  580668   0.30  78080.00  77344.00      0.00       0  java SharedMemorySort generatedfile outfile 

# Time        UID       PID    %usr %system  %guest   %wait    %CPU   CPU  minflt/s  majflt/s     VSZ     RSS   %MEM   kB_rd/s   kB_wr/s kB_ccwr/s iodelay  Command
21:23:37        0         1    0.00    1.00    0.00    0.00    1.00     4    238.00      0.00  160056    9276   0.00     -1.00     -1.00     -1.00       0  /sbin/init 
21:23:37        0       894    0.00    0.00    0.00    0.00    0.00     0     37.00      0.00  237312  124136   0.06     -1.00     -1.00     -1.00       0  /lib/systemd/systemd-journald 
21:23:37        0       926    1.00    1.00    0.00    0.00    2.00    33    809.00      0.00   46148    4760   0.00     -1.00     -1.00     -1.00       0  /lib/systemd/systemd-udevd 
21:23:37      103      2252    1.00    1.00    0.00    0.00    2.00     8      0.00      0.00   39760    3836   0.00     -1.00     -1.00     -1.00       0  /usr/bin/dbus-daemon --system --address=systemd: --nofork --nopidfile --systemd-activation --syslog-only 
21:23:37     1000     47792    2.00    1.00    0.00    0.00    3.00    28      0.00      0.00   22156   16768   0.01      0.00      0.00      0.00       0  pidstat -dru -hl 1 
21:23:37     1000     47793   98.00    1.00    0.00    0.00   99.00    12    292.00      0.00 37788676  580668   0.30      0.00  48704.00      0.00       0  java SharedMemorySort generatedfile outfile 

# Time        UID       PID    %usr %system  %guest   %wait    %CPU   CPU  minflt/s  majflt/s     VSZ     RSS   %MEM   kB_rd/s   kB_wr/s kB_ccwr/s iodelay  Command
21:23:38        0      2174    0.00    1.00    0.00    0.00    1.00    39      0.00      0.00  110780    3812   0.00     -1.00     -1.00     -1.00       0  /usr/sbin/irqbalance --foreground 
21:23:38        0     26891    0.00    5.00    0.00    0.00    5.00    15      0.00      0.00       0       0   0.00     -1.00     -1.00     -1.00      28  kworker/u98:1
21:23:38     1000     47682    0.00    3.00    0.00    0.00    3.00    45      0.00      0.00   34444    3996   0.00      0.00      0.00      0.00       0  top 
21:23:38     1000     47792    1.00    2.00    0.00    0.00    3.00    28      1.00      0.00   22156   16768   0.01      0.00      4.00      0.00       0  pidstat -dru -hl 1 
21:23:38     1000     47793  100.00   10.00    0.00    0.00  100.00    12  13830.00      0.00 37788676  633232   0.32  78080.00  28656.00      0.00       0  java SharedMemorySort generatedfile outfile 

# Time        UID       PID    %usr %system  %guest   %wait    %CPU   CPU  minflt/s  majflt/s     VSZ     RSS   %MEM   kB_rd/s   kB_wr/s kB_ccwr/s iodelay  Command
21:23:39        0       180    1.00    0.00    0.00    0.00    1.00    28      0.00      0.00       0       0   0.00     -1.00     -1.00     -1.00       0  ksoftirqd/28
21:23:39     1000     47792    1.00    3.00    0.00    0.00    4.00    28      1.00      0.00   22156   16768   0.01      0.00      4.00      0.00       0  pidstat -dru -hl 1 
21:23:39     1000     47793   93.00    5.00    0.00    0.00   98.00    12    107.00      0.00 37788676  633232   0.32  61952.00  77344.00      0.00       0  java SharedMemorySort generatedfile outfile 
Linux 4.15.0-91-generic (team-24-hw5-i2) 	04/13/20 	_x86_64_	(48 CPU)

# Time        UID       PID    %usr %system  %guest   %wait    %CPU   CPU  minflt/s  majflt/s     VSZ     RSS   %MEM   kB_rd/s   kB_wr/s kB_ccwr/s iodelay  Command
21:25:34     1000     48048    0.98    1.96    0.00    0.00    2.94    27      3.92      0.00   34444    4016   0.00      0.00      0.00      0.00       0  top 
21:25:34     1000     48051  100.00    6.86    0.00    0.00  100.00    19      0.00      0.00 5035184 1399000   0.71      0.00 463811.76      0.00       0  ./gensort -a 40000000 generatedfile 
21:25:34     1000     48104    1.96    1.96    0.00    0.00    3.92    46   2598.04      0.00   22384   16412   0.01      0.00      0.00      0.00       0  pidstat -dru -hl 1 

# Time        UID       PID    %usr %system  %guest   %wait    %CPU   CPU  minflt/s  majflt/s     VSZ     RSS   %MEM   kB_rd/s   kB_wr/s kB_ccwr/s iodelay  Command
21:25:35        0       815    0.00    1.00    0.00    0.00    1.00    45      0.00      0.00       0       0   0.00     -1.00     -1.00     -1.00       0  kworker/45:1H
21:25:35     1000     48051  100.00   10.00    0.00    0.00  100.00    19      0.00      0.00 5035184 1399000   0.71      0.00 450560.00      0.00       0  ./gensort -a 40000000 generatedfile 
21:25:35     1000     48104    3.00    1.00    0.00    0.00    4.00    46    104.00      0.00   22384   16940   0.01      0.00      0.00      0.00       0  pidstat -dru -hl 1 

# Time        UID       PID    %usr %system  %guest   %wait    %CPU   CPU  minflt/s  majflt/s     VSZ     RSS   %MEM   kB_rd/s   kB_wr/s kB_ccwr/s iodelay  Command
21:25:36        0       288    1.00    0.00    0.00    0.00    1.00    46      0.00      0.00       0       0   0.00     -1.00     -1.00     -1.00       0  ksoftirqd/46
21:25:36        0     31340    0.00    1.00    0.00    0.00    1.00    21      0.00      0.00       0       0   0.00     -1.00     -1.00     -1.00       0  kworker/21:0
21:25:36     1000     48051   59.00    9.00    0.00    0.00   68.00    44      4.00      0.00 4674560 1411364   0.72      0.00 452608.00      0.00       0  ./gensort -a 40000000 generatedfile 
21:25:36     1000     48104    0.00    3.00    0.00    0.00    3.00    46      0.00      0.00   22384   16940   0.01      0.00      4.00      0.00       0  pidstat -dru -hl 1 

# Time        UID       PID    %usr %system  %guest   %wait    %CPU   CPU  minflt/s  majflt/s     VSZ     RSS   %MEM   kB_rd/s   kB_wr/s kB_ccwr/s iodelay  Command
21:25:37        0      1095    0.00    1.00    0.00    0.00    1.00    10      0.00      0.00       0       0   0.00     -1.00     -1.00     -1.00       0  kworker/10:1H
21:25:37        0      2174    0.00    1.00    0.00    0.00    1.00    39      0.00      0.00  110780    3812   0.00     -1.00     -1.00     -1.00       0  /usr/sbin/irqbalance --foreground 
21:25:37     1000     48048    1.00    2.00    0.00    0.00    3.00    27      0.00      0.00   34444    4016   0.00      0.00      0.00      0.00       0  top 
21:25:37     1000     48051   11.00    7.00    0.00    0.00   18.00    44    525.00      0.00 4674560 1411656   0.72      0.00 454656.00      0.00       0  ./gensort -a 40000000 generatedfile 
21:25:37     1000     48104    0.00    3.00    0.00    0.00    3.00    46      0.00      0.00   22384   16940   0.01      0.00      0.00      0.00       0  pidstat -dru -hl 1 

# Time        UID       PID    %usr %system  %guest   %wait    %CPU   CPU  minflt/s  majflt/s     VSZ     RSS   %MEM   kB_rd/s   kB_wr/s kB_ccwr/s iodelay  Command
21:25:38     1000     48051   11.00    7.00    0.00    0.00   18.00    44      8.00      0.00 4674560 1411656   0.72      0.00 451072.00      0.00       0  ./gensort -a 40000000 generatedfile 
21:25:38     1000     48104    1.00    2.00    0.00    0.00    3.00    46      0.00      0.00   22384   16940   0.01      0.00      0.00      0.00       0  pidstat -dru -hl 1 

# Time        UID       PID    %usr %system  %guest   %wait    %CPU   CPU  minflt/s  majflt/s     VSZ     RSS   %MEM   kB_rd/s   kB_wr/s kB_ccwr/s iodelay  Command
21:25:39        0         9    0.00    1.00    0.00    1.00    1.00    42      0.00      0.00       0       0   0.00     -1.00     -1.00     -1.00       0  rcu_sched
21:25:39     1000     48050    0.00    0.00    0.00    0.00    0.00    19      8.00      0.00    4628     852   0.00      0.00 3906252.00      0.00       0  sh run1g.sh 
21:25:39     1000     48104    0.00    2.00    0.00    0.00    2.00    46      0.00      0.00   22384   16940   0.01      0.00      0.00      0.00       0  pidstat -dru -hl 1 
21:25:39     1000     48105  100.00   21.00    0.00    0.00  100.00    21  12161.00      0.00 37789164   55656   0.03      0.00     32.00      0.00       0  javac SharedMemorySort.java 

# Time        UID       PID    %usr %system  %guest   %wait    %CPU   CPU  minflt/s  majflt/s     VSZ     RSS   %MEM   kB_rd/s   kB_wr/s kB_ccwr/s iodelay  Command
21:25:40        0         1    0.00    1.00    0.00    0.00    1.00    18    230.00      0.00  160056    9276   0.00     -1.00     -1.00     -1.00       0  /sbin/init 
21:25:40        0       894    0.00    0.00    0.00    0.00    0.00    14    120.00      0.00  237312  124348   0.06     -1.00     -1.00     -1.00       0  /lib/systemd/systemd-journald 
21:25:40        0       926    0.00    1.00    0.00    0.00    1.00     8    769.00      0.00   46148    4760   0.00     -1.00     -1.00     -1.00       0  /lib/systemd/systemd-udevd 
21:25:40     1000     48048    0.00    2.00    0.00    0.00    2.00    27      0.00      0.00   34444    4016   0.00      0.00      0.00      0.00       0  top 
21:25:40     1000     48050    0.00    0.00    0.00    0.00    0.00    19      8.00      0.00    4628     852   0.00      0.00     52.00      0.00       0  sh run1g.sh 
21:25:40     1000     48104    2.00    2.00    0.00    0.00    4.00    46      0.00      0.00   22384   16940   0.01      0.00      0.00      0.00       0  pidstat -dru -hl 1 
21:25:40     1000     48169  100.00   14.00    0.00    0.00  100.00    45  63130.00      0.00 37788676  263012   0.13  78320.00     32.00      0.00       0  java SharedMemorySort generatedfile outfile 

# Time        UID       PID    %usr %system  %guest   %wait    %CPU   CPU  minflt/s  majflt/s     VSZ     RSS   %MEM   kB_rd/s   kB_wr/s kB_ccwr/s iodelay  Command
21:25:41        0     46185    0.00    1.00    0.00    0.00    1.00     0      0.00      0.00       0       0   0.00     -1.00     -1.00     -1.00       0  kworker/u97:1
21:25:41     1000     48104    0.00    3.00    0.00    0.00    3.00    46      0.00      0.00   22384   16940   0.01      0.00      4.00      0.00       0  pidstat -dru -hl 1 
21:25:41     1000     48169   89.00   18.00    0.00    0.00  100.00    45  65262.00      0.00 37788676  346472   0.18  24832.00  77344.00      0.00       0  java SharedMemorySort generatedfile outfile 

# Time        UID       PID    %usr %system  %guest   %wait    %CPU   CPU  minflt/s  majflt/s     VSZ     RSS   %MEM   kB_rd/s   kB_wr/s kB_ccwr/s iodelay  Command
21:25:42     1000     48104    1.00    3.00    0.00    0.00    4.00    46      0.00      0.00   22384   16940   0.01      0.00      0.00      0.00       0  pidstat -dru -hl 1 
21:25:42     1000     48169   98.00    8.00    0.00    0.00  100.00    45  93350.00      0.00 37788676  515488   0.26  53248.00      0.00      0.00       0  java SharedMemorySort generatedfile outfile 

# Time        UID       PID    %usr %system  %guest   %wait    %CPU   CPU  minflt/s  majflt/s     VSZ     RSS   %MEM   kB_rd/s   kB_wr/s kB_ccwr/s iodelay  Command
21:25:43     1000     48048    2.00    1.00    0.00    0.00    3.00    27      0.00      0.00   34444    4016   0.00      0.00      0.00      0.00       0  top 
21:25:43     1000     48104    1.00    2.00    0.00    0.00    3.00    46      0.00      0.00   22384   16940   0.01      0.00      0.00      0.00       0  pidstat -dru -hl 1 
21:25:43     1000     48169  100.00   16.00    0.00    0.00  100.00    45  24933.00      0.00 37788676  578948   0.29  78208.00  77344.00      0.00       0  java SharedMemorySort generatedfile outfile 

# Time        UID       PID    %usr %system  %guest   %wait    %CPU   CPU  minflt/s  majflt/s     VSZ     RSS   %MEM   kB_rd/s   kB_wr/s kB_ccwr/s iodelay  Command
21:25:44     1000     48104    0.00    2.00    0.00    0.00    2.00    46      0.00      0.00   22384   16940   0.01      0.00      0.00      0.00       0  pidstat -dru -hl 1 
21:25:44     1000     48169   88.00    5.00    0.00    0.00   93.00    45    658.00      0.00 37788676  578948   0.29    256.00  77344.00      0.00       0  java SharedMemorySort generatedfile outfile 

# Time        UID       PID    %usr %system  %guest   %wait    %CPU   CPU  minflt/s  majflt/s     VSZ     RSS   %MEM   kB_rd/s   kB_wr/s kB_ccwr/s iodelay  Command
21:25:45     1000     48104    2.00    2.00    0.00    0.00    4.00    46      0.00      0.00   22384   16940   0.01      0.00      0.00      0.00       0  pidstat -dru -hl 1 
21:25:45     1000     48169   85.00    6.00    0.00    0.00   91.00    45  11535.00      0.00 37788676  577304   0.29  77824.00      0.00      0.00       0  java SharedMemorySort generatedfile outfile 

# Time        UID       PID    %usr %system  %guest   %wait    %CPU   CPU  minflt/s  majflt/s     VSZ     RSS   %MEM   kB_rd/s   kB_wr/s kB_ccwr/s iodelay  Command
21:25:46     1000     48048    0.99    1.98    0.00    0.00    2.97    27      0.00      0.00   34444    4016   0.00      0.00      0.00      0.00       0  top 
21:25:46     1000     48104    0.99    1.98    0.00    0.00    2.97    46      0.00      0.00   22384   16940   0.01      0.00      0.00      0.00       0  pidstat -dru -hl 1 
21:25:46     1000     48169  100.00   26.73    0.00    0.00  100.00    45  13954.46      0.00 37788676  629840   0.32  77306.93  76578.22      0.00       0  java SharedMemorySort generatedfile outfile 

# Time        UID       PID    %usr %system  %guest   %wait    %CPU   CPU  minflt/s  majflt/s     VSZ     RSS   %MEM   kB_rd/s   kB_wr/s kB_ccwr/s iodelay  Command
21:25:47     1000     48104    1.00    2.00    0.00    0.00    3.00    46      0.00      0.00   22384   16940   0.01      0.00      4.00      0.00       0  pidstat -dru -hl 1 
21:25:47     1000     48169   95.00    4.00    0.00    0.00   99.00    45     23.00      0.00 37788676  629840   0.32      0.00  72136.00      0.00       0  java SharedMemorySort generatedfile outfile 

# Time        UID       PID    %usr %system  %guest   %wait    %CPU   CPU  minflt/s  majflt/s     VSZ     RSS   %MEM   kB_rd/s   kB_wr/s kB_ccwr/s iodelay  Command
21:25:48        0       820    0.00    1.00    0.00    0.00    1.00    29      0.00      0.00       0       0   0.00     -1.00     -1.00     -1.00       0  kworker/29:1H
21:25:48     1000     48104    1.00    2.00    0.00    0.00    3.00    46      0.00      0.00   22384   16940   0.01      0.00      0.00      0.00       0  pidstat -dru -hl 1 
21:25:48     1000     48169   75.00    7.00    0.00    0.00   82.00    45  18610.00      0.00 37788676  629840   0.32  78208.00   5208.00      0.00       0  java SharedMemorySort generatedfile outfile 

# Time        UID       PID    %usr %system  %guest   %wait    %CPU   CPU  minflt/s  majflt/s     VSZ     RSS   %MEM   kB_rd/s   kB_wr/s kB_ccwr/s iodelay  Command
21:25:49     1000     48048    1.00    2.00    0.00    0.00    3.00    27      0.00      0.00   34444    4016   0.00      0.00      0.00      0.00       0  top 
21:25:49     1000     48104    3.00    1.00    0.00    0.00    4.00    46      0.00      0.00   22384   16940   0.01      0.00      0.00      0.00       0  pidstat -dru -hl 1 
21:25:49     1000     48169  100.00   21.00    0.00    0.00  100.00    45  47370.00      0.00 37788676  711668   0.36  78080.00  77344.00      0.00       0  java SharedMemorySort generatedfile outfile 

# Time        UID       PID    %usr %system  %guest   %wait    %CPU   CPU  minflt/s  majflt/s     VSZ     RSS   %MEM   kB_rd/s   kB_wr/s kB_ccwr/s iodelay  Command
21:25:50        0         1    0.00    0.00    0.00    0.00    0.00    24    243.00      0.00  160056    9276   0.00     -1.00     -1.00     -1.00       0  /sbin/init 
21:25:50        0       894    0.00    0.00    0.00    0.00    0.00    14     31.00      0.00  237312  124348   0.06     -1.00     -1.00     -1.00       0  /lib/systemd/systemd-journald 
21:25:50        0       926    0.00    1.00    0.00    0.00    1.00     8    778.00      0.00   46148    4760   0.00     -1.00     -1.00     -1.00       0  /lib/systemd/systemd-udevd 
21:25:50     1000     48104    1.00    2.00    0.00    0.00    3.00    46      0.00      0.00   22384   16940   0.01      0.00      0.00      0.00       0  pidstat -dru -hl 1 
21:25:50     1000     48169   96.00    4.00    0.00    0.00  100.00    45   8533.00      0.00 37788676  711668   0.36      0.00  48464.00      0.00       0  java SharedMemorySort generatedfile outfile 

# Time        UID       PID    %usr %system  %guest   %wait    %CPU   CPU  minflt/s  majflt/s     VSZ     RSS   %MEM   kB_rd/s   kB_wr/s kB_ccwr/s iodelay  Command
21:25:51     1000     48104    1.00    2.00    0.00    0.00    3.00    46      0.00      0.00   22384   16940   0.01      0.00      0.00      0.00       0  pidstat -dru -hl 1 
21:25:51     1000     48169   74.00    8.00    0.00    0.00   82.00    45  37765.00      0.00 37788676  711668   0.36  78080.00  28880.00      0.00       0  java SharedMemorySort generatedfile outfile 

# Time        UID       PID    %usr %system  %guest   %wait    %CPU   CPU  minflt/s  majflt/s     VSZ     RSS   %MEM   kB_rd/s   kB_wr/s kB_ccwr/s iodelay  Command
21:25:52     1000     48104    2.00    2.00    0.00    0.00    4.00    46      0.00      0.00   22384   16940   0.01      0.00      0.00      0.00       0  pidstat -dru -hl 1 
21:25:52     1000     48169  100.00  100.00    0.00    0.00  100.00    45  75430.00      0.00 37788676  795656   0.40  78208.00  77344.00      0.00       0  java SharedMemorySort generatedfile outfile 

# Time        UID       PID    %usr %system  %guest   %wait    %CPU   CPU  minflt/s  majflt/s     VSZ     RSS   %MEM   kB_rd/s   kB_wr/s kB_ccwr/s iodelay  Command
21:25:53     1000     48104    2.00    2.00    0.00    0.00    4.00    46      1.00      0.00   22384   16940   0.01      0.00      4.00      0.00       0  pidstat -dru -hl 1 
21:25:53     1000     48169   99.00    1.00    0.00    0.00  100.00    45     28.00      0.00 37788676  795656   0.40      0.00  18104.00      0.00       0  java SharedMemorySort generatedfile outfile 

# Time        UID       PID    %usr %system  %guest   %wait    %CPU   CPU  minflt/s  majflt/s     VSZ     RSS   %MEM   kB_rd/s   kB_wr/s kB_ccwr/s iodelay  Command
21:25:54     1000     48104    0.00    2.00    0.00    0.00    2.00    46      1.00      0.00   22384   16940   0.01      0.00      0.00      0.00       0  pidstat -dru -hl 1 
21:25:54     1000     48169   92.00    5.00    0.00    0.00   97.00    45    139.00      0.00 37788676  795656   0.40  78080.00  59240.00      0.00       0  java SharedMemorySort generatedfile outfile 

# Time        UID       PID    %usr %system  %guest   %wait    %CPU   CPU  minflt/s  majflt/s     VSZ     RSS   %MEM   kB_rd/s   kB_wr/s kB_ccwr/s iodelay  Command
21:25:55     1000     48104    2.00    2.00    0.00    0.00    4.00    46      0.00      0.00   22384   16940   0.01      0.00      0.00      0.00       0  pidstat -dru -hl 1 
21:25:55     1000     48169  100.00   40.00    0.00    0.00  100.00    45  45297.00      0.00 37788676  971892   0.49  78080.00  77344.00      0.00       0  java SharedMemorySort generatedfile outfile 

# Time        UID       PID    %usr %system  %guest   %wait    %CPU   CPU  minflt/s  majflt/s     VSZ     RSS   %MEM   kB_rd/s   kB_wr/s kB_ccwr/s iodelay  Command
21:25:56     1000     48104    1.00    2.00    0.00    0.00    3.00    46      0.00      0.00   22384   16940   0.01      0.00      0.00      0.00       0  pidstat -dru -hl 1 
21:25:56     1000     48169   97.00    2.00    0.00    0.00   99.00    45      0.00      0.00 37788676  971892   0.49      0.00  49744.00      0.00       0  java SharedMemorySort generatedfile outfile 

# Time        UID       PID    %usr %system  %guest   %wait    %CPU   CPU  minflt/s  majflt/s     VSZ     RSS   %MEM   kB_rd/s   kB_wr/s kB_ccwr/s iodelay  Command
21:25:57        0       833    0.00    1.00    0.00    0.00    1.00    31      0.00      0.00       0       0   0.00     -1.00     -1.00     -1.00       0  kworker/31:1H
21:25:57     1000     48104    1.00    2.00    0.00    0.00    3.00    46      0.00      0.00   22384   16940   0.01      0.00      0.00      0.00       0  pidstat -dru -hl 1 
21:25:57     1000     48169   92.00    5.00    0.00    0.00   97.00    45      0.00      0.00 37788676  971892   0.49  78208.00  27600.00      0.00       0  java SharedMemorySort generatedfile outfile 

# Time        UID       PID    %usr %system  %guest   %wait    %CPU   CPU  minflt/s  majflt/s     VSZ     RSS   %MEM   kB_rd/s   kB_wr/s kB_ccwr/s iodelay  Command
21:25:58     1000     48104    1.00    2.00    0.00    0.00    3.00    46      0.00      0.00   22384   16940   0.01      0.00      0.00      0.00       0  pidstat -dru -hl 1 
21:25:58     1000     48169   85.00   11.00    0.00    0.00   96.00    45  49825.00      0.00 37788676  971892   0.49  78080.00  77344.00      0.00       0  java SharedMemorySort generatedfile outfile 

# Time        UID       PID    %usr %system  %guest   %wait    %CPU   CPU  minflt/s  majflt/s     VSZ     RSS   %MEM   kB_rd/s   kB_wr/s kB_ccwr/s iodelay  Command
21:25:59     1000     48104    1.00    2.00    0.00    0.00    3.00    46      0.00      0.00   22384   16940   0.01      0.00      0.00      0.00       0  pidstat -dru -hl 1 
21:25:59     1000     48169   88.00   11.00    0.00    0.00   99.00    45  84493.00      0.00 37788676  971892   0.49  43904.00  77344.00      0.00       0  java SharedMemorySort generatedfile outfile 

# Time        UID       PID    %usr %system  %guest   %wait    %CPU   CPU  minflt/s  majflt/s     VSZ     RSS   %MEM   kB_rd/s   kB_wr/s kB_ccwr/s iodelay  Command
21:26:00        0         1    1.00    0.00    0.00    0.00    1.00    28    233.00      0.00  160056    9276   0.00     -1.00     -1.00     -1.00       0  /sbin/init 
21:26:00        0       894    0.00    0.00    0.00    0.00    0.00    14     38.00      0.00  237312  124364   0.06     -1.00     -1.00     -1.00       0  /lib/systemd/systemd-journald 
21:26:00        0       926    1.00    1.00    0.00    0.00    2.00     8    816.00      0.00   46148    4760   0.00     -1.00     -1.00     -1.00       0  /lib/systemd/systemd-udevd 
21:26:00      102      2047    0.00    1.00    0.00    0.00    1.00     0      0.00      0.00  263036    4784   0.00     -1.00     -1.00     -1.00       0  /usr/sbin/rsyslogd -n 
21:26:00        0     43615    0.00    1.00    0.00    1.00    1.00     2      0.00      0.00       0       0   0.00     -1.00     -1.00     -1.00       0  kworker/2:2
21:26:00     1000     48104    2.00    2.00    0.00    0.00    4.00    46      0.00      0.00   22384   16940   0.01      0.00      4.00      0.00       0  pidstat -dru -hl 1 
21:26:00     1000     48169   95.00    3.00    0.00    0.00   98.00    45  30593.00      0.00 37788676 1045892   0.53  34304.00      0.00      0.00       0  java SharedMemorySort generatedfile outfile 

# Time        UID       PID    %usr %system  %guest   %wait    %CPU   CPU  minflt/s  majflt/s     VSZ     RSS   %MEM   kB_rd/s   kB_wr/s kB_ccwr/s iodelay  Command
21:26:01        0      2149    0.00    0.00    0.00    0.00    0.00    29      1.00      0.00   31852    3052   0.00     -1.00     -1.00     -1.00       0  /usr/sbin/cron -f 
21:26:01     1000     48104    1.00    2.00    0.00    0.00    3.00    46      0.00      0.00   22384   16940   0.01      0.00      0.00      0.00       0  pidstat -dru -hl 1 
21:26:01     1000     48169  100.00   39.00    0.00    0.00  100.00    45  93134.00      0.00 37788676 1350376   0.69  78080.00  77344.00      0.00       0  java SharedMemorySort generatedfile outfile 

# Time        UID       PID    %usr %system  %guest   %wait    %CPU   CPU  minflt/s  majflt/s     VSZ     RSS   %MEM   kB_rd/s   kB_wr/s kB_ccwr/s iodelay  Command
21:26:02     1000     48104    1.00    2.00    0.00    0.00    3.00    46      0.00      0.00   22384   16940   0.01      0.00      0.00      0.00       0  pidstat -dru -hl 1 
21:26:02     1000     48169   92.00    6.00    0.00    0.00   98.00    45   2376.00      0.00 37788676 1350376   0.69  55040.00  77344.00      0.00       0  java SharedMemorySort generatedfile outfile 

# Time        UID       PID    %usr %system  %guest   %wait    %CPU   CPU  minflt/s  majflt/s     VSZ     RSS   %MEM   kB_rd/s   kB_wr/s kB_ccwr/s iodelay  Command
21:26:03     1000     48104    1.00    3.00    0.00    0.00    4.00    46      0.00      0.00   22384   16940   0.01      0.00      0.00      0.00       0  pidstat -dru -hl 1 
21:26:03     1000     48169   96.00    2.00    0.00    0.00   98.00    45   8509.00      0.00 37788676 1350376   0.69  23040.00  28732.00      0.00       0  java SharedMemorySort generatedfile outfile 

# Time        UID       PID    %usr %system  %guest   %wait    %CPU   CPU  minflt/s  majflt/s     VSZ     RSS   %MEM   kB_rd/s   kB_wr/s kB_ccwr/s iodelay  Command
21:26:04     1000     48104    1.00    2.00    0.00    0.00    3.00    46      0.00      0.00   22384   16940   0.01      0.00      0.00      0.00       0  pidstat -dru -hl 1 
21:26:04     1000     48169   89.00    8.00    0.00    0.00   97.00    45   4093.00      0.00 37788676 1350376   0.69  78208.00  48612.00      0.00       0  java SharedMemorySort generatedfile outfile 

# Time        UID       PID    %usr %system  %guest   %wait    %CPU   CPU  minflt/s  majflt/s     VSZ     RSS   %MEM   kB_rd/s   kB_wr/s kB_ccwr/s iodelay  Command
21:26:05     1000     48104    1.00    2.00    0.00    0.00    3.00    46      0.00      0.00   22384   16940   0.01      0.00      0.00      0.00       0  pidstat -dru -hl 1 
21:26:05     1000     48169   93.00    3.00    0.00    0.00   96.00    45    112.00      0.00 37788676 1350376   0.69  78080.00  77344.00      0.00       0  java SharedMemorySort generatedfile outfile 

# Time        UID       PID    %usr %system  %guest   %wait    %CPU   CPU  minflt/s  majflt/s     VSZ     RSS   %MEM   kB_rd/s   kB_wr/s kB_ccwr/s iodelay  Command
21:26:06        0       622    0.00    1.00    0.00    0.00    1.00    46      0.00      0.00       0       0   0.00     -1.00     -1.00     -1.00       0  kworker/46:1H
21:26:06     1000     48104    1.00    3.00    0.00    0.00    4.00    46      0.00      0.00   22384   16940   0.01      0.00      4.00      0.00       0  pidstat -dru -hl 1 
21:26:06     1000     48169   90.00    8.00    0.00    0.00   98.00    45     66.00      0.00 37788676 1350376   0.69  43008.00  77344.00      0.00       0  java SharedMemorySort generatedfile outfile 

# Time        UID       PID    %usr %system  %guest   %wait    %CPU   CPU  minflt/s  majflt/s     VSZ     RSS   %MEM   kB_rd/s   kB_wr/s kB_ccwr/s iodelay  Command