Linux 4.15.0-91-generic (team-24-hw5-i2) 	04/13/20 	_x86_64_	(48 CPU)

# Time        UID       PID    %usr %system  %guest   %wait    %CPU   CPU  minflt/s  majflt/s     VSZ     RSS   %MEM   kB_rd/s   kB_wr/s kB_ccwr/s iodelay  Command
21:33:14     1000       304    0.96    2.88    0.00    0.00    3.85     6   2538.46      0.00   22324   14128   0.01      0.00      0.00      0.00       0  pidstat -dru -hl 1 
21:33:14        0       867    0.00    0.96    0.00    0.00    0.96     3      0.00      0.00       0       0   0.00     -1.00     -1.00     -1.00       0  kworker/3:1H
21:33:14        0     31340    0.00    0.96    0.00    0.00    0.96    21      0.00      0.00       0       0   0.00     -1.00     -1.00     -1.00       0  kworker/21:0
21:33:14     1000     49089    0.96    2.88    0.00    0.00    3.85    31      3.85      0.00   34444    4084   0.00      0.00      0.00      0.00       0  top 
21:33:14     1000     49092  100.00    7.69    0.00    0.00  100.00    37      0.00      0.00 5035184 1398996   0.71      0.00 455384.62      0.00       0  ./gensort -a 160000000 generatedfile 

# Time        UID       PID    %usr %system  %guest   %wait    %CPU   CPU  minflt/s  majflt/s     VSZ     RSS   %MEM   kB_rd/s   kB_wr/s kB_ccwr/s iodelay  Command
21:33:15     1000       304    2.00    1.00    0.00    0.00    3.00     6    692.00      0.00   22324   16768   0.01      0.00      0.00      0.00       0  pidstat -dru -hl 1 
21:33:15     1000     49092  100.00    6.00    0.00    0.00  100.00    37      0.00      0.00 5035184 1398996   0.71      0.00 450560.00      0.00       0  ./gensort -a 160000000 generatedfile 

# Time        UID       PID    %usr %system  %guest   %wait    %CPU   CPU  minflt/s  majflt/s     VSZ     RSS   %MEM   kB_rd/s   kB_wr/s kB_ccwr/s iodelay  Command
21:33:16     1000       304    1.00    2.00    0.00    0.00    3.00     6      0.00      0.00   22324   16768   0.01      0.00      0.00      0.00       0  pidstat -dru -hl 1 
21:33:16        0       807    0.00    1.00    0.00    0.00    1.00    17      0.00      0.00       0       0   0.00     -1.00     -1.00     -1.00       0  kworker/17:1H
21:33:16     1000     49092  100.00    9.00    0.00    0.00  100.00    37      0.00      0.00 5035184 1398996   0.71      0.00 449536.00      0.00       0  ./gensort -a 160000000 generatedfile 

# Time        UID       PID    %usr %system  %guest   %wait    %CPU   CPU  minflt/s  majflt/s     VSZ     RSS   %MEM   kB_rd/s   kB_wr/s kB_ccwr/s iodelay  Command
21:33:17     1000       304    1.00    3.00    0.00    0.00    4.00     6      0.00      0.00   22324   16768   0.01      0.00      0.00      0.00       0  pidstat -dru -hl 1 
21:33:17     1000     49089    1.00    1.00    0.00    0.00    2.00    33      0.00      0.00   34444    4084   0.00      0.00      0.00      0.00       0  top 
21:33:17     1000     49092  100.00   11.00    0.00    1.00  100.00    37    544.00      0.00 5035184 1401044   0.71      0.00 454144.00      0.00       0  ./gensort -a 160000000 generatedfile 

# Time        UID       PID    %usr %system  %guest   %wait    %CPU   CPU  minflt/s  majflt/s     VSZ     RSS   %MEM   kB_rd/s   kB_wr/s kB_ccwr/s iodelay  Command
21:33:18     1000       304    2.00    1.00    0.00    0.00    3.00     6      0.00      0.00   22324   16768   0.01      0.00      0.00      0.00       0  pidstat -dru -hl 1 
21:33:18     1000     49092  100.00    6.00    0.00    0.00  100.00    37     91.00      0.00 5035184 1408080   0.72      0.00 453632.00      0.00       0  ./gensort -a 160000000 generatedfile 

# Time        UID       PID    %usr %system  %guest   %wait    %CPU   CPU  minflt/s  majflt/s     VSZ     RSS   %MEM   kB_rd/s   kB_wr/s kB_ccwr/s iodelay  Command
21:33:19        0         9    0.00    1.00    0.00    0.00    1.00    13      0.00      0.00       0       0   0.00     -1.00     -1.00     -1.00       0  rcu_sched
21:33:19     1000       304    2.00    1.00    0.00    0.00    3.00     6      0.00      0.00   22324   16768   0.01      0.00      0.00      0.00       0  pidstat -dru -hl 1 
21:33:19        0       903    0.00    1.00    0.00    0.00    1.00     7      0.00      0.00       0       0   0.00     -1.00     -1.00     -1.00       0  kworker/7:1H
21:33:19     1000     49092  100.00    8.00    0.00    0.00  100.00    37     49.00      0.00 5035184 1411720   0.72      0.00 456192.00      0.00       0  ./gensort -a 160000000 generatedfile 

# Time        UID       PID    %usr %system  %guest   %wait    %CPU   CPU  minflt/s  majflt/s     VSZ     RSS   %MEM   kB_rd/s   kB_wr/s kB_ccwr/s iodelay  Command
21:33:20     1000       304    2.00    2.00    0.00    0.00    4.00     6      0.00      0.00   22324   16768   0.01      0.00      4.00      0.00       0  pidstat -dru -hl 1 
21:33:20        0       824    0.00    1.00    0.00    0.00    1.00    19      0.00      0.00       0       0   0.00     -1.00     -1.00     -1.00       0  kworker/19:1H
21:33:20        0       853    0.00    1.00    0.00    0.00    1.00    23      0.00      0.00       0       0   0.00     -1.00     -1.00     -1.00       0  kworker/23:1H
21:33:20     1000     49089    2.00    1.00    0.00    0.00    3.00     0      0.00      0.00   34444    4084   0.00      0.00      0.00      0.00       0  top 
21:33:20     1000     49092  100.00   45.00    0.00    0.00  100.00    37  83819.00      0.00 5035184 1411720   0.72      0.00 445440.00      0.00       0  ./gensort -a 160000000 generatedfile 

# Time        UID       PID    %usr %system  %guest   %wait    %CPU   CPU  minflt/s  majflt/s     VSZ     RSS   %MEM   kB_rd/s   kB_wr/s kB_ccwr/s iodelay  Command
21:33:21        0         1    1.00    1.00    0.00    0.00    2.00    39    235.00      0.00  160056    9276   0.00     -1.00     -1.00     -1.00       0  /sbin/init 
21:33:21     1000       304    2.00    1.00    0.00    0.00    3.00     6      0.00      0.00   22324   16768   0.01      0.00      0.00      0.00       0  pidstat -dru -hl 1 
21:33:21        0       894    0.00    0.00    0.00    0.00    0.00     0     47.00      0.00  237312  124872   0.06     -1.00     -1.00     -1.00       0  /lib/systemd/systemd-journald 
21:33:21        0       926    0.00    1.00    0.00    0.00    1.00    43    877.00      0.00   46148    4760   0.00     -1.00     -1.00     -1.00       0  /lib/systemd/systemd-udevd 
21:33:21      103      2252    1.00    0.00    0.00    0.00    1.00    31      0.00      0.00   39760    3836   0.00     -1.00     -1.00     -1.00       0  /usr/bin/dbus-daemon --system --address=systemd: --nofork --nopidfile --systemd-activation --syslog-only 
21:33:21        0     31487    0.00    1.00    0.00    1.00    1.00    28      0.00      0.00       0       0   0.00     -1.00     -1.00     -1.00       0  kworker/28:1
21:33:21     1000     49092  100.00   12.00    0.00    0.00  100.00    39  10032.00      0.00 5035184 1411720   0.72      0.00 446976.00      0.00       0  ./gensort -a 160000000 generatedfile 

# Time        UID       PID    %usr %system  %guest   %wait    %CPU   CPU  minflt/s  majflt/s     VSZ     RSS   %MEM   kB_rd/s   kB_wr/s kB_ccwr/s iodelay  Command
21:33:22     1000       304    2.00    2.00    0.00    0.00    4.00     6      0.00      0.00   22324   16768   0.01      0.00      0.00      0.00       0  pidstat -dru -hl 1 
21:33:22     1000     49092  100.00   51.00    0.00    0.00  100.00    39 112155.00      0.00 5035184 1411720   0.72      0.00 448512.00      0.00       0  ./gensort -a 160000000 generatedfile 

# Time        UID       PID    %usr %system  %guest   %wait    %CPU   CPU  minflt/s  majflt/s     VSZ     RSS   %MEM   kB_rd/s   kB_wr/s kB_ccwr/s iodelay  Command
21:33:23        0        48    1.00    0.00    0.00    0.00    1.00     6      0.00      0.00       0       0   0.00     -1.00     -1.00     -1.00       0  ksoftirqd/6
21:33:23     1000       304    1.00    2.00    0.00    0.00    3.00     6      0.00      0.00   22324   16768   0.01      0.00      0.00      0.00       0  pidstat -dru -hl 1 
21:33:23     1000     49089    0.00    3.00    0.00    0.00    3.00     0      0.00      0.00   34444    4084   0.00      0.00      0.00      0.00       0  top 
21:33:23     1000     49092  100.00   16.00    0.00    0.00  100.00    39  28688.00      0.00 5035184 1411888   0.72      0.00 449536.00      0.00       0  ./gensort -a 160000000 generatedfile 

# Time        UID       PID    %usr %system  %guest   %wait    %CPU   CPU  minflt/s  majflt/s     VSZ     RSS   %MEM   kB_rd/s   kB_wr/s kB_ccwr/s iodelay  Command
21:33:24     1000       304    1.00    2.00    0.00    0.00    3.00     6      0.00      0.00   22324   16768   0.01      0.00      4.00      0.00       0  pidstat -dru -hl 1 
21:33:24     1000     49092  100.00   55.00    0.00    1.00  100.00    39 111030.00      0.00 5035184 1411888   0.72      0.00 442368.00      0.00       0  ./gensort -a 160000000 generatedfile 

# Time        UID       PID    %usr %system  %guest   %wait    %CPU   CPU  minflt/s  majflt/s     VSZ     RSS   %MEM   kB_rd/s   kB_wr/s kB_ccwr/s iodelay  Command
21:33:25     1000       304    2.00    1.00    0.00    0.00    3.00     6      0.00      0.00   22324   16768   0.01      0.00      0.00      0.00       0  pidstat -dru -hl 1 
21:33:25        0       910    0.00    1.00    0.00    0.00    1.00    33      0.00      0.00       0       0   0.00     -1.00     -1.00     -1.00       0  kworker/33:1H
21:33:25     1000     49092  100.00    7.00    0.00    0.00  100.00    39   6731.00      0.00 5035184 1411888   0.72      0.00 453120.00      0.00       0  ./gensort -a 160000000 generatedfile 

# Time        UID       PID    %usr %system  %guest   %wait    %CPU   CPU  minflt/s  majflt/s     VSZ     RSS   %MEM   kB_rd/s   kB_wr/s kB_ccwr/s iodelay  Command
21:33:26        0         9    0.00    1.00    0.00    0.00    1.00     3      0.00      0.00       0       0   0.00     -1.00     -1.00     -1.00       0  rcu_sched
21:33:26     1000       304    2.00    1.00    0.00    0.00    3.00     6      0.00      0.00   22324   16768   0.01      0.00      0.00      0.00       0  pidstat -dru -hl 1 
21:33:26     1000     49089    2.00    1.00    0.00    0.00    3.00     0      0.00      0.00   34444    4084   0.00      0.00      0.00      0.00       0  top 
21:33:26     1000     49092  100.00    4.00    0.00    0.00  100.00    41      8.00      0.00 5035184 1411888   0.72      0.00 452096.00      0.00       0  ./gensort -a 160000000 generatedfile 

# Time        UID       PID    %usr %system  %guest   %wait    %CPU   CPU  minflt/s  majflt/s     VSZ     RSS   %MEM   kB_rd/s   kB_wr/s kB_ccwr/s iodelay  Command
21:33:27     1000       304    1.00    2.00    0.00    0.00    3.00     6      0.00      0.00   22324   16768   0.01      0.00      0.00      0.00       0  pidstat -dru -hl 1 
21:33:27     1000     49092  100.00    8.00    0.00    0.00  100.00    41     18.00      0.00 5035184 1411888   0.72      0.00 447488.00      0.00       0  ./gensort -a 160000000 generatedfile 

# Time        UID       PID    %usr %system  %guest   %wait    %CPU   CPU  minflt/s  majflt/s     VSZ     RSS   %MEM   kB_rd/s   kB_wr/s kB_ccwr/s iodelay  Command
21:33:28     1000       304    2.00    2.00    0.00    0.00    4.00     6      0.00      0.00   22324   16768   0.01      0.00      0.00      0.00       0  pidstat -dru -hl 1 
21:33:28        0      2174    0.00    1.00    0.00    0.00    1.00    41      0.00      0.00  110780    3812   0.00     -1.00     -1.00     -1.00       0  /usr/sbin/irqbalance --foreground 
21:33:28     1000     49092  100.00   10.00    0.00    0.00  100.00    41  18862.00      0.00 5035184 1411888   0.72      0.00 453120.00      0.00       0  ./gensort -a 160000000 generatedfile 

# Time        UID       PID    %usr %system  %guest   %wait    %CPU   CPU  minflt/s  majflt/s     VSZ     RSS   %MEM   kB_rd/s   kB_wr/s kB_ccwr/s iodelay  Command
21:33:29     1000       304    1.00    2.00    0.00    0.00    3.00     6      0.00      0.00   22324   16768   0.01      0.00      0.00      0.00       0  pidstat -dru -hl 1 
21:33:29     1000     49089    2.00    1.00    0.00    0.00    3.00     0      0.00      0.00   34444    4084   0.00      0.00      0.00      0.00       0  top 
21:33:29     1000     49092  100.00   32.00    0.00    0.00  100.00    47 113564.00      0.00 5035184 1411888   0.72      0.00 454144.00      0.00       0  ./gensort -a 160000000 generatedfile 

# Time        UID       PID    %usr %system  %guest   %wait    %CPU   CPU  minflt/s  majflt/s     VSZ     RSS   %MEM   kB_rd/s   kB_wr/s kB_ccwr/s iodelay  Command
21:33:30        0         1    0.00    0.00    0.00    0.00    0.00    39      2.00      0.00  160056    9276   0.00     -1.00     -1.00     -1.00       0  /sbin/init 
21:33:30     1000       304    1.00    2.00    0.00    0.00    3.00     6      0.00      0.00   22324   16768   0.01      0.00      4.00      0.00       0  pidstat -dru -hl 1 
21:33:30        0      1061    0.00    1.00    0.00    0.00    1.00    41      0.00      0.00       0       0   0.00     -1.00     -1.00     -1.00       0  kworker/41:1H
21:33:30        0     41349    1.00    0.00    0.00    0.00    1.00     0      0.00      0.00       0       0   0.00     -1.00     -1.00     -1.00       0  kworker/0:0
21:33:30        0     47857    0.00    1.00    0.00    0.00    1.00     0      0.00      0.00       0       0   0.00     -1.00     -1.00     -1.00       0  kworker/u97:0
21:33:30     1000     49092  100.00   11.00    0.00    1.00  100.00     1  18499.00      0.00 5035184 1411888   0.72      0.00 453120.00      0.00       0  ./gensort -a 160000000 generatedfile 

# Time        UID       PID    %usr %system  %guest   %wait    %CPU   CPU  minflt/s  majflt/s     VSZ     RSS   %MEM   kB_rd/s   kB_wr/s kB_ccwr/s iodelay  Command
21:33:31        0         1    0.00    0.00    0.00    0.00    0.00    45    236.00      0.00  160056    9276   0.00     -1.00     -1.00     -1.00       0  /sbin/init 
21:33:31     1000       304    1.00    2.00    0.00    0.00    3.00     6      0.00      0.00   22324   16768   0.01      0.00      0.00      0.00       0  pidstat -dru -hl 1 
21:33:31        0       894    0.00    1.00    0.00    0.00    1.00    41     31.00      0.00  237312  124896   0.06     -1.00     -1.00     -1.00       0  /lib/systemd/systemd-journald 
21:33:31        0       926    0.00    1.00    0.00    0.00    1.00    47    843.00      0.00   46148    4760   0.00     -1.00     -1.00     -1.00       0  /lib/systemd/systemd-udevd 
21:33:31      102      2047    0.00    1.00    0.00    0.00    1.00     0      0.00      0.00  263036    4784   0.00     -1.00     -1.00     -1.00       0  /usr/sbin/rsyslogd -n 
21:33:31     1000     49092  100.00   30.00    0.00    0.00  100.00    13 101000.00      0.00 5035184 1411888   0.72      0.00 448000.00      0.00       0  ./gensort -a 160000000 generatedfile 

# Time        UID       PID    %usr %system  %guest   %wait    %CPU   CPU  minflt/s  majflt/s     VSZ     RSS   %MEM   kB_rd/s   kB_wr/s kB_ccwr/s iodelay  Command
21:33:32        0         9    0.00    1.00    0.00    0.00    1.00    41      0.00      0.00       0       0   0.00     -1.00     -1.00     -1.00       0  rcu_sched
21:33:32     1000       304    3.00    1.00    0.00    0.00    4.00     6      0.00      0.00   22324   16768   0.01      0.00      0.00      0.00       0  pidstat -dru -hl 1 
21:33:32     1000     49089    0.00    2.00    0.00    0.00    2.00     0      0.00      0.00   34444    4084   0.00      0.00      0.00      0.00       0  top 
21:33:32     1000     49092  100.00    7.00    0.00    0.00  100.00    15     46.00      0.00 5035184 1411888   0.72      0.00 451584.00      0.00       0  ./gensort -a 160000000 generatedfile 

# Time        UID       PID    %usr %system  %guest   %wait    %CPU   CPU  minflt/s  majflt/s     VSZ     RSS   %MEM   kB_rd/s   kB_wr/s kB_ccwr/s iodelay  Command
21:33:33     1000       304    1.00    2.00    0.00    0.00    3.00     6      0.00      0.00   22324   16768   0.01      0.00      0.00      0.00       0  pidstat -dru -hl 1 
21:33:33        0     38910    0.00    1.00    0.00    0.00    1.00    46      0.00      0.00       0       0   0.00     -1.00     -1.00     -1.00       0  kworker/46:0
21:33:33     1000     49092  100.00   24.00    0.00    0.00  100.00    15  81879.00      0.00 5035184 1411888   0.72      0.00 452608.00      0.00       0  ./gensort -a 160000000 generatedfile 

# Time        UID       PID    %usr %system  %guest   %wait    %CPU   CPU  minflt/s  majflt/s     VSZ     RSS   %MEM   kB_rd/s   kB_wr/s kB_ccwr/s iodelay  Command
21:33:34     1000       304    1.00    2.00    0.00    0.00    3.00     6      0.00      0.00   22324   16768   0.01      0.00      4.00      0.00       0  pidstat -dru -hl 1 
21:33:34     1000     49092  100.00   11.00    0.00    0.00  100.00    27  18607.00      0.00 5035184 1411888   0.72      0.00 458240.00      0.00       0  ./gensort -a 160000000 generatedfile 

# Time        UID       PID    %usr %system  %guest   %wait    %CPU   CPU  minflt/s  majflt/s     VSZ     RSS   %MEM   kB_rd/s   kB_wr/s kB_ccwr/s iodelay  Command
21:33:35     1000       304    1.00    3.00    0.00    0.00    4.00     6      0.00      0.00   22324   16768   0.01      0.00      0.00      0.00       0  pidstat -dru -hl 1 
21:33:35        0       887    0.00    1.00    0.00    0.00    1.00    21      0.00      0.00       0       0   0.00     -1.00     -1.00     -1.00       0  kworker/21:1H
21:33:35     1000     49089    2.00    1.00    0.00    0.00    3.00     0      0.00      0.00   34444    4084   0.00      0.00      0.00      0.00       0  top 
21:33:35     1000     49092  100.00    9.00    0.00    0.00  100.00    27     46.00      0.00 5035184 1411888   0.72      0.00 453120.00      0.00       0  ./gensort -a 160000000 generatedfile 

# Time        UID       PID    %usr %system  %guest   %wait    %CPU   CPU  minflt/s  majflt/s     VSZ     RSS   %MEM   kB_rd/s   kB_wr/s kB_ccwr/s iodelay  Command
21:33:36     1000       304    2.00    1.00    0.00    0.00    3.00     6      0.00      0.00   22324   16768   0.01      0.00      0.00      0.00       0  pidstat -dru -hl 1 
21:33:36     1000     49092  100.00   16.00    0.00    0.00  100.00    27  28970.00      0.00 5035184 1411888   0.72      0.00 447488.00      0.00       0  ./gensort -a 160000000 generatedfile 

# Time        UID       PID    %usr %system  %guest   %wait    %CPU   CPU  minflt/s  majflt/s     VSZ     RSS   %MEM   kB_rd/s   kB_wr/s kB_ccwr/s iodelay  Command
21:33:37     1000       304    1.00    2.00    0.00    0.00    3.00     6      0.00      0.00   22324   16768   0.01      0.00      0.00      0.00       0  pidstat -dru -hl 1 
21:33:37        0       920    0.00    1.00    0.00    0.00    1.00    11      0.00      0.00       0       0   0.00     -1.00     -1.00     -1.00       0  kworker/11:1H
21:33:37     1000     49092  100.00    7.00    0.00    0.00  100.00    27      0.00      0.00 5035184 1411888   0.72      0.00 453120.00      0.00       0  ./gensort -a 160000000 generatedfile 

# Time        UID       PID    %usr %system  %guest   %wait    %CPU   CPU  minflt/s  majflt/s     VSZ     RSS   %MEM   kB_rd/s   kB_wr/s kB_ccwr/s iodelay  Command
21:33:38     1000       304    0.00    3.00    0.00    0.00    3.00     6      0.00      0.00   22324   16768   0.01      0.00      0.00      0.00       0  pidstat -dru -hl 1 
21:33:38        0      2174    0.00    1.00    0.00    0.00    1.00    41      0.00      0.00  110780    3812   0.00     -1.00     -1.00     -1.00       0  /usr/sbin/irqbalance --foreground 
21:33:38     1000     49092  100.00   28.00    0.00    1.00  100.00    27 104430.00      0.00 5035184 1411888   0.72      0.00 453120.00      0.00       0  ./gensort -a 160000000 generatedfile 

# Time        UID       PID    %usr %system  %guest   %wait    %CPU   CPU  minflt/s  majflt/s     VSZ     RSS   %MEM   kB_rd/s   kB_wr/s kB_ccwr/s iodelay  Command
21:33:39        0         9    0.00    1.00    0.00    1.00    1.00    29      0.00      0.00       0       0   0.00     -1.00     -1.00     -1.00       0  rcu_sched
21:33:39     1000       304    2.00    1.00    0.00    0.00    3.00     6      0.00      0.00   22324   16768   0.01      0.00      0.00      0.00       0  pidstat -dru -hl 1 
21:33:39        0       820    0.00    1.00    0.00    0.00    1.00    29      0.00      0.00       0       0   0.00     -1.00     -1.00     -1.00       0  kworker/29:1H
21:33:39     1000     49092  100.00   17.00    0.00    0.00  100.00    31  26643.00      0.00 5035184 1411888   0.72      0.00 456192.00      0.00       0  ./gensort -a 160000000 generatedfile 

# Time        UID       PID    %usr %system  %guest   %wait    %CPU   CPU  minflt/s  majflt/s     VSZ     RSS   %MEM   kB_rd/s   kB_wr/s kB_ccwr/s iodelay  Command
21:33:40     1000       304    2.00    2.00    0.00    0.00    4.00     6      0.00      0.00   22324   16768   0.01      0.00      4.00      0.00       0  pidstat -dru -hl 1 
21:33:40     1000     49092  100.00   14.00    0.00    0.00  100.00    35  45073.00      0.00 5035184 1411888   0.72      0.00 450560.00      0.00       0  ./gensort -a 160000000 generatedfile 

# Time        UID       PID    %usr %system  %guest   %wait    %CPU   CPU  minflt/s  majflt/s     VSZ     RSS   %MEM   kB_rd/s   kB_wr/s kB_ccwr/s iodelay  Command
21:33:41     1000       304    1.00    2.00    0.00    0.00    3.00     6      0.00      0.00   22324   16768   0.01      0.00      0.00      0.00       0  pidstat -dru -hl 1 
21:33:41     1000     49092  100.00   11.00    0.00    0.00  100.00    35  20463.00      0.00 5035184 1411888   0.72      0.00 452608.00      0.00       0  ./gensort -a 160000000 generatedfile 

# Time        UID       PID    %usr %system  %guest   %wait    %CPU   CPU  minflt/s  majflt/s     VSZ     RSS   %MEM   kB_rd/s   kB_wr/s kB_ccwr/s iodelay  Command
21:33:42        0         1    0.00    0.00    0.00    0.00    0.00     1    231.00      0.00  160056    9276   0.00     -1.00     -1.00     -1.00       0  /sbin/init 
21:33:42     1000       304    2.00    1.00    0.00    0.00    3.00     6      0.00      0.00   22324   16768   0.01      0.00      0.00      0.00       0  pidstat -dru -hl 1 
21:33:42        0       894    0.00    0.00    0.00    0.00    0.00    41    122.00      0.00  237312  124904   0.06     -1.00     -1.00     -1.00       0  /lib/systemd/systemd-journald 
21:33:42        0       926    1.00    0.00    0.00    0.00    1.00     5    798.00      0.00   46148    4760   0.00     -1.00     -1.00     -1.00       0  /lib/systemd/systemd-udevd 
21:33:42      102      2047    1.00    0.00    0.00    0.00    1.00     0      0.00      0.00  263036    4784   0.00     -1.00     -1.00     -1.00       0  /usr/sbin/rsyslogd -n 
21:33:42     1000     49092  100.00    8.00    0.00    0.00  100.00     3     45.00      0.00 4674560 1411584   0.72      0.00 453120.00      0.00       0  ./gensort -a 160000000 generatedfile 

# Time        UID       PID    %usr %system  %guest   %wait    %CPU   CPU  minflt/s  majflt/s     VSZ     RSS   %MEM   kB_rd/s   kB_wr/s kB_ccwr/s iodelay  Command
21:33:43     1000       304    2.00    2.00    0.00    0.00    4.00     6      1.00      0.00   22324   17024   0.01      0.00      0.00      0.00       0  pidstat -dru -hl 1 
21:33:43     1000     49092   18.00   24.00    0.00    0.00   42.00     3  65536.00      0.00 4674560 1411584   0.72      0.00 450560.00      0.00       0  ./gensort -a 160000000 generatedfile 

# Time        UID       PID    %usr %system  %guest   %wait    %CPU   CPU  minflt/s  majflt/s     VSZ     RSS   %MEM   kB_rd/s   kB_wr/s kB_ccwr/s iodelay  Command
21:33:44     1000       304    2.00    1.00    0.00    0.00    3.00     6      1.00      0.00   22324   17024   0.01      0.00      0.00      0.00       0  pidstat -dru -hl 1 
21:33:44     1000     49092   13.00    8.00    0.00    0.00   21.00     3      5.00      0.00 4674560 1411584   0.72      0.00 457728.00      0.00       0  ./gensort -a 160000000 generatedfile 

# Time        UID       PID    %usr %system  %guest   %wait    %CPU   CPU  minflt/s  majflt/s     VSZ     RSS   %MEM   kB_rd/s   kB_wr/s kB_ccwr/s iodelay  Command
21:33:45     1000       304    1.00    2.00    0.00    0.00    3.00     6      0.00      0.00   22324   17024   0.01      0.00      0.00      0.00       0  pidstat -dru -hl 1 
21:33:45     1000     49092   18.00   11.00    0.00    0.00   29.00     3  33871.00      0.00 4674560 1411584   0.72      0.00 449536.00      0.00       0  ./gensort -a 160000000 generatedfile 

# Time        UID       PID    %usr %system  %guest   %wait    %CPU   CPU  minflt/s  majflt/s     VSZ     RSS   %MEM   kB_rd/s   kB_wr/s kB_ccwr/s iodelay  Command
21:33:46        0         9    0.00    1.00    0.00    0.00    1.00    39      0.00      0.00       0       0   0.00     -1.00     -1.00     -1.00       0  rcu_sched
21:33:46     1000       304    2.00    2.00    0.00    0.00    4.00     6      0.00      0.00   22324   17024   0.01      0.00      4.00      0.00       0  pidstat -dru -hl 1 
21:33:46     1000       433   80.00   12.00    0.00    0.00   92.00    38  50563.00      0.00 37788676  214544   0.11  66544.00     32.00      0.00       0  java SharedMemorySort generatedfile outfile 
21:33:46     1000     49091    0.00    0.00    0.00    0.00    0.00    13     16.00      0.00    4628     884   0.00      0.00 15625052.00      0.00       0  sh run1g.sh 

# Time        UID       PID    %usr %system  %guest   %wait    %CPU   CPU  minflt/s  majflt/s     VSZ     RSS   %MEM   kB_rd/s   kB_wr/s kB_ccwr/s iodelay  Command
21:33:47     1000       304    2.00    1.00    0.00    0.00    3.00     6      3.00      0.00   22324   17024   0.01      0.00      0.00      0.00       0  pidstat -dru -hl 1 
21:33:47     1000       433  100.00    4.00    0.00    0.00  100.00    38  17173.00      0.00 37788676  282152   0.14  11776.00  13324.00      0.00       0  java SharedMemorySort generatedfile outfile 

# Time        UID       PID    %usr %system  %guest   %wait    %CPU   CPU  minflt/s  majflt/s     VSZ     RSS   %MEM   kB_rd/s   kB_wr/s kB_ccwr/s iodelay  Command
21:33:48     1000       304    1.00    2.00    0.00    0.00    3.00     6      2.00      0.00   22324   17024   0.01      0.00      4.00      0.00       0  pidstat -dru -hl 1 
21:33:48     1000       433   96.00   18.00    0.00    0.00  100.00    38 137708.00      0.00 37788676  508060   0.26  78080.00  64044.00      0.00       0  java SharedMemorySort generatedfile outfile 
21:33:48        0      2195    0.00    0.00    0.00    0.00    0.00    27      1.00      0.00  779800    3488   0.00     -1.00     -1.00     -1.00       0  /usr/sbin/nscd 

# Time        UID       PID    %usr %system  %guest   %wait    %CPU   CPU  minflt/s  majflt/s     VSZ     RSS   %MEM   kB_rd/s   kB_wr/s kB_ccwr/s iodelay  Command
21:33:49     1000       304    2.00    1.00    0.00    0.00    3.00     6      0.00      0.00   22324   17024   0.01      0.00      0.00      0.00       0  pidstat -dru -hl 1 
21:33:49     1000       433  100.00   11.00    0.00    0.00  100.00    38  41885.00      0.00 37788676  580704   0.30  78208.00  77344.00      0.00       0  java SharedMemorySort generatedfile outfile 

# Time        UID       PID    %usr %system  %guest   %wait    %CPU   CPU  minflt/s  majflt/s     VSZ     RSS   %MEM   kB_rd/s   kB_wr/s kB_ccwr/s iodelay  Command
21:33:50     1000       304    1.00    2.00    0.00    0.00    3.00     6      0.00      0.00   22324   17024   0.01      0.00      0.00      0.00       0  pidstat -dru -hl 1 
21:33:50     1000       433   98.00    1.00    0.00    0.00   99.00    38    818.00      0.00 37788676  580704   0.30      0.00  68868.00      0.00       0  java SharedMemorySort generatedfile outfile 

# Time        UID       PID    %usr %system  %guest   %wait    %CPU   CPU  minflt/s  majflt/s     VSZ     RSS   %MEM   kB_rd/s   kB_wr/s kB_ccwr/s iodelay  Command
21:33:51     1000       304    1.00    2.00    0.00    0.00    3.00     6      0.00      0.00   22324   17024   0.01      0.00      0.00      0.00       0  pidstat -dru -hl 1 
21:33:51     1000       433   94.00    3.00    0.00    0.00   97.00    38  11612.00      0.00 37788676  580704   0.30  78080.00   8476.00      0.00       0  java SharedMemorySort generatedfile outfile 

# Time        UID       PID    %usr %system  %guest   %wait    %CPU   CPU  minflt/s  majflt/s     VSZ     RSS   %MEM   kB_rd/s   kB_wr/s kB_ccwr/s iodelay  Command
21:33:52        0         1    0.00    1.00    0.00    0.00    1.00     3    242.00      0.00  160056    9276   0.00     -1.00     -1.00     -1.00       0  /sbin/init 
21:33:52     1000       304    1.00    3.00    0.00    0.00    4.00     6      0.00      0.00   22324   17024   0.01      0.00      0.00      0.00       0  pidstat -dru -hl 1 
21:33:52     1000       433  100.00   20.00    0.00    0.00  100.00    38  13882.00      0.00 37788676  633248   0.32  78080.00  77352.00      0.00       0  java SharedMemorySort generatedfile outfile 
21:33:52        0       894    1.00    0.00    0.00    0.00    1.00     0    115.00      0.00  237312  124920   0.06     -1.00     -1.00     -1.00       0  /lib/systemd/systemd-journald 
21:33:52        0       926    1.00    1.00    0.00    0.00    2.00     5    735.00      0.00   46148    4760   0.00     -1.00     -1.00     -1.00       0  /lib/systemd/systemd-udevd 
21:33:52        0     47857    0.00    2.00    0.00    0.00    2.00    18      0.00      0.00       0       0   0.00     -1.00     -1.00     -1.00       8  kworker/u97:0

# Time        UID       PID    %usr %system  %guest   %wait    %CPU   CPU  minflt/s  majflt/s     VSZ     RSS   %MEM   kB_rd/s   kB_wr/s kB_ccwr/s iodelay  Command
21:33:53     1000       304    1.00    2.00    0.00    0.00    3.00     6      0.00      0.00   22324   17024   0.01      0.00      8.00      0.00       0  pidstat -dru -hl 1 